<?xml version="1.0" encoding="UTF-8"?>

<!-- generated on 2026-03-22T18:46:14.830383+05:30 by Eclipse SUMO sumo 1.25.0
<sumoConfiguration xmlns:xsi="http://www.w3.org/2001/XMLSchema-instance" xsi:noNamespaceSchemaLocation="http://sumo.dlr.de/xsd/sumoConfiguration.xsd">

    <input>
        <net-file value="E:\Projects\FedLearning-Robotics\sumo_config\hello.net.xml"/>
        <route-files value="E:\Projects\FedLearning-Robotics\sumo_config\hello.rou.xml"/>
        <additional-files value="E:\Projects\FedLearning-Robotics\sumo_config\hello.view.xml"/>
    </input>

    <output>
        <tripinfo-output value="E:\Projects\FedLearning-Robotics\sumo_config\tripinfo.xml"/>
    </output>

    <time>
        <begin value="0"/>
        <end value="1000"/>
    </time>

    <report>
        <no-warnings value="true"/>
        <log value="E:\Projects\FedLearning-Robotics\sumo_config\sumo_debug.log"/>
        <error-log value="E:\Projects\FedLearning-Robotics\sumo_config\sumo_debug.log"/>
        <no-step-log value="true"/>
    </report>

    <traci_server>
        <remote-port value="57734"/>
    </traci_server>

    <gui_only>
        <quit-on-end value="true"/>
        <start value="true"/>
    </gui_only>

</sumoConfiguration>
-->

<tripinfos xmlns:xsi="http://www.w3.org/2001/XMLSchema-instance" xsi:noNamespaceSchemaLocation="http://sumo.dlr.de/xsd/tripinfo_file.xsd">
    <tripinfo id="burst_WE.0" depart="0.00" departLane="edge_W_in_0" departPos="5.00" departSpeed="0.00" departDelay="0.00" arrival="80.00" arrivalLane="edge_E_out_0" arrivalPos="492.80" arrivalSpeed="12.99" duration="80.00" routeLength="995.00" waitingTime="0.00" waitingCount="0" stopTime="0.00" timeLoss="8.04" rerouteNo="0" devices="tripinfo_burst_WE.0" vType="car" speedFactor="1.09" vaporized=""/>
    <tripinfo id="burst_WN.0" depart="3.00" departLane="edge_W_in_0" departPos="5.00" departSpeed="0.00" departDelay="3.00" arrival="90.00" arrivalLane="edge_N_out_0" arrivalPos="492.80" arrivalSpeed="12.23" duration="87.00" routeLength="994.79" waitingTime="0.00" waitingCount="0" stopTime="0.00" timeLoss="8.67" rerouteNo="0" devices="tripinfo_burst_WN.0" vType="car" speedFactor="0.93" vaporized=""/>
    <tripinfo id="burst_WS.0" depart="6.00" departLane="edge_W_in_0" departPos="5.00" departSpeed="0.00" departDelay="6.00" arrival="90.00" arrivalLane="edge_S_out_0" arrivalPos="492.80" arrivalSpeed="13.68" duration="84.00" routeLength="989.63" waitingTime="0.00" waitingCount="0" stopTime="0.00" timeLoss="11.37" rerouteNo="0" devices="tripinfo_burst_WS.0" vType="car" speedFactor="1.01" vaporized=""/>
    <tripinfo id="burst_WE.1" depart="9.00" departLane="edge_W_in_0" departPos="5.00" departSpeed="0.00" departDelay="8.80" arrival="95.00" arrivalLane="edge_E_out_0" arrivalPos="492.80" arrivalSpeed="12.59" duration="86.00" routeLength="995.00" waitingTime="0.00" waitingCount="0" stopTime="0.00" timeLoss="9.34" rerouteNo="0" devices="tripinfo_burst_WE.1" vType="car" speedFactor="0.94" vaporized=""/>
    <tripinfo id="burst_WE.2" depart="11.00" departLane="edge_W_in_0" departPos="5.00" departSpeed="0.00" departDelay="10.60" arrival="97.00" arrivalLane="edge_E_out_0" arrivalPos="492.80" arrivalSpeed="13.44" duration="86.00" routeLength="995.00" waitingTime="0.00" waitingCount="0" stopTime="0.00" timeLoss="13.60" rerouteNo="0" devices="tripinfo_burst_WE.2" vType="car" speedFactor="1.10" vaporized=""/>
    <tripinfo id="burst_SE.0" depart="2.00" departLane="edge_S_in_0" departPos="5.00" departSpeed="0.00" departDelay="2.00" arrival="106.00" arrivalLane="edge_E_out_0" arrivalPos="492.80" arrivalSpeed="12.97" duration="104.00" routeLength="989.63" waitingTime="14.00" waitingCount="1" stopTime="0.00" timeLoss="31.47" rerouteNo="0" devices="tripinfo_burst_SE.0" vType="car" speedFactor="1.12" vaporized=""/>
    <tripinfo id="burst_SN.0" depart="0.00" departLane="edge_S_in_0" departPos="5.00" departSpeed="0.00" departDelay="0.00" arrival="109.00" arrivalLane="edge_N_out_0" arrivalPos="492.80" arrivalSpeed="11.88" duration="109.00" routeLength="995.00" waitingTime="16.00" waitingCount="1" stopTime="0.00" timeLoss="27.36" rerouteNo="0" devices="tripinfo_burst_SN.0" vType="car" speedFactor="0.89" vaporized=""/>
    <tripinfo id="burst_SN.1" depart="8.00" departLane="edge_S_in_0" departPos="5.00" departSpeed="0.00" departDelay="7.80" arrival="111.00" arrivalLane="edge_N_out_0" arrivalPos="492.80" arrivalSpeed="12.43" duration="103.00" routeLength="995.00" waitingTime="13.00" waitingCount="1" stopTime="0.00" timeLoss="31.02" rerouteNo="0" devices="tripinfo_burst_SN.1" vType="car" speedFactor="1.03" vaporized=""/>
    <tripinfo id="burst_SW.0" depart="5.00" departLane="edge_S_in_0" departPos="5.00" departSpeed="0.00" departDelay="5.00" arrival="112.00" arrivalLane="edge_W_out_0" arrivalPos="492.80" arrivalSpeed="11.85" duration="107.00" routeLength="994.79" waitingTime="14.00" waitingCount="1" stopTime="0.00" timeLoss="29.34" rerouteNo="0" devices="tripinfo_burst_SW.0" vType="car" speedFactor="0.94" vaporized=""/>
    <tripinfo id="burst_SN.2" depart="11.00" departLane="edge_S_in_0" departPos="5.00" departSpeed="0.00" departDelay="10.60" arrival="115.00" arrivalLane="edge_N_out_0" arrivalPos="492.80" arrivalSpeed="13.24" duration="104.00" routeLength="995.00" waitingTime="12.00" waitingCount="1" stopTime="0.00" timeLoss="31.89" rerouteNo="0" devices="tripinfo_burst_SN.2" vType="car" speedFactor="1.13" vaporized=""/>
    <tripinfo id="burst_SN.3" depart="14.00" departLane="edge_S_in_0" departPos="5.00" departSpeed="0.00" departDelay="13.40" arrival="121.00" arrivalLane="edge_N_out_0" arrivalPos="492.80" arrivalSpeed="12.10" duration="107.00" routeLength="995.00" waitingTime="9.00" waitingCount="1" stopTime="0.00" timeLoss="26.71" rerouteNo="0" devices="tripinfo_burst_SN.3" vType="car" speedFactor="0.89" vaporized=""/>
    <tripinfo id="burst_SN.4" depart="17.00" departLane="edge_S_in_0" departPos="5.00" departSpeed="0.00" departDelay="16.20" arrival="123.00" arrivalLane="edge_N_out_0" arrivalPos="492.80" arrivalSpeed="12.65" duration="106.00" routeLength="995.00" waitingTime="9.00" waitingCount="1" stopTime="0.00" timeLoss="33.89" rerouteNo="0" devices="tripinfo_burst_SN.4" vType="car" speedFactor="1.15" vaporized=""/>
    <tripinfo id="burst_SE.1" depart="20.00" departLane="edge_S_in_0" departPos="5.00" departSpeed="0.00" departDelay="19.80" arrival="123.00" arrivalLane="edge_E_out_0" arrivalPos="492.80" arrivalSpeed="12.71" duration="103.00" routeLength="989.63" waitingTime="7.00" waitingCount="1" stopTime="0.00" timeLoss="30.47" rerouteNo="0" devices="tripinfo_burst_SE.1" vType="car" speedFactor="1.02" vaporized=""/>
    <tripinfo id="burst_EW.0" depart="0.00" departLane="edge_E_in_0" departPos="5.00" departSpeed="0.00" departDelay="0.00" arrival="128.00" arrivalLane="edge_W_out_0" arrivalPos="492.80" arrivalSpeed="12.79" duration="128.00" routeLength="995.00" waitingTime="46.00" waitingCount="1" stopTime="0.00" timeLoss="56.25" rerouteNo="0" devices="tripinfo_burst_EW.0" vType="car" speedFactor="1.01" vaporized=""/>
    <tripinfo id="burst_ES.0" depart="5.00" departLane="edge_E_in_0" departPos="5.00" departSpeed="0.00" departDelay="5.00" arrival="134.00" arrivalLane="edge_S_out_0" arrivalPos="492.80" arrivalSpeed="13.19" duration="129.00" routeLength="994.79" waitingTime="39.00" waitingCount="1" stopTime="0.00" timeLoss="55.89" rerouteNo="0" devices="tripinfo_burst_ES.0" vType="car" speedFactor="1.08" vaporized=""/>
    <tripinfo id="burst_EN.0" depart="3.00" departLane="edge_E_in_0" departPos="5.00" departSpeed="0.00" departDelay="3.00" arrival="135.00" arrivalLane="edge_N_out_0" arrivalPos="492.80" arrivalSpeed="11.82" duration="132.00" routeLength="989.63" waitingTime="40.00" waitingCount="1" stopTime="0.00" timeLoss="51.86" rerouteNo="0" devices="tripinfo_burst_EN.0" vType="car" speedFactor="0.90" vaporized=""/>
    <tripinfo id="burst_EW.1" depart="8.00" departLane="edge_E_in_0" departPos="5.00" departSpeed="0.00" departDelay="7.80" arrival="135.00" arrivalLane="edge_W_out_0" arrivalPos="492.80" arrivalSpeed="13.35" duration="127.00" routeLength="995.00" waitingTime="39.00" waitingCount="1" stopTime="0.00" timeLoss="54.91" rerouteNo="0" devices="tripinfo_burst_EW.1" vType="car" speedFactor="1.12" vaporized=""/>
    <tripinfo id="burst_NE.0" depart="6.00" departLane="edge_N_in_0" departPos="5.00" departSpeed="0.00" departDelay="6.00" arrival="147.00" arrivalLane="edge_E_out_0" arrivalPos="492.80" arrivalSpeed="13.30" duration="141.00" routeLength="994.79" waitingTime="51.00" waitingCount="1" stopTime="0.00" timeLoss="68.10" rerouteNo="0" devices="tripinfo_burst_NE.0" vType="car" speedFactor="1.04" vaporized=""/>
    <tripinfo id="burst_NW.0" depart="3.00" departLane="edge_N_in_0" departPos="5.00" departSpeed="0.00" departDelay="3.00" arrival="148.00" arrivalLane="edge_W_out_0" arrivalPos="492.80" arrivalSpeed="11.63" duration="145.00" routeLength="989.63" waitingTime="51.00" waitingCount="1" stopTime="0.00" timeLoss="66.46" rerouteNo="0" devices="tripinfo_burst_NW.0" vType="car" speedFactor="0.92" vaporized=""/>
    <tripinfo id="burst_NS.0" depart="0.00" departLane="edge_N_in_0" departPos="5.00" departSpeed="0.00" departDelay="0.00" arrival="149.00" arrivalLane="edge_S_out_0" arrivalPos="492.80" arrivalSpeed="11.10" duration="149.00" routeLength="995.00" waitingTime="51.00" waitingCount="1" stopTime="0.00" timeLoss="63.23" rerouteNo="0" devices="tripinfo_burst_NS.0" vType="car" speedFactor="0.84" vaporized=""/>
    <tripinfo id="burst_NS.1" depart="8.00" departLane="edge_N_in_0" departPos="5.00" departSpeed="0.00" departDelay="7.80" arrival="150.00" arrivalLane="edge_S_out_0" arrivalPos="492.80" arrivalSpeed="13.14" duration="142.00" routeLength="995.00" waitingTime="50.00" waitingCount="1" stopTime="0.00" timeLoss="70.29" rerouteNo="0" devices="tripinfo_burst_NS.1" vType="car" speedFactor="1.03" vaporized=""/>
    <tripinfo id="burst_WE.3" depart="14.00" departLane="edge_W_in_0" departPos="5.00" departSpeed="0.00" departDelay="13.40" arrival="162.00" arrivalLane="edge_E_out_0" arrivalPos="492.80" arrivalSpeed="10.62" duration="148.00" routeLength="995.00" waitingTime="49.00" waitingCount="1" stopTime="0.00" timeLoss="62.19" rerouteNo="0" devices="tripinfo_burst_WE.3" vType="car" speedFactor="0.83" vaporized=""/>
    <tripinfo id="burst_WN.1" depart="20.00" departLane="edge_W_in_0" departPos="5.00" departSpeed="0.00" departDelay="19.80" arrival="162.00" arrivalLane="edge_N_out_0" arrivalPos="492.80" arrivalSpeed="12.70" duration="142.00" routeLength="994.79" waitingTime="48.00" waitingCount="1" stopTime="0.00" timeLoss="66.24" rerouteNo="0" devices="tripinfo_burst_WN.1" vType="car" speedFactor="0.96" vaporized=""/>
    <tripinfo id="burst_WE.4" depart="17.00" departLane="edge_W_in_0" departPos="5.00" departSpeed="0.00" departDelay="16.20" arrival="164.00" arrivalLane="edge_E_out_0" arrivalPos="492.80" arrivalSpeed="13.67" duration="147.00" routeLength="995.00" waitingTime="49.00" waitingCount="1" stopTime="0.00" timeLoss="74.85" rerouteNo="0" devices="tripinfo_burst_WE.4" vType="car" speedFactor="1.03" vaporized=""/>
    <tripinfo id="burst_WN.2" depart="23.00" departLane="edge_W_in_0" departPos="5.00" departSpeed="0.00" departDelay="22.60" arrival="164.00" arrivalLane="edge_N_out_0" arrivalPos="492.80" arrivalSpeed="12.56" duration="141.00" routeLength="994.79" waitingTime="47.00" waitingCount="1" stopTime="0.00" timeLoss="67.92" rerouteNo="0" devices="tripinfo_burst_WN.2" vType="car" speedFactor="1.02" vaporized=""/>
    <tripinfo id="burst_SE.2" depart="23.00" departLane="edge_S_in_0" departPos="5.00" departSpeed="0.00" departDelay="22.60" arrival="173.00" arrivalLane="edge_E_out_0" arrivalPos="492.80" arrivalSpeed="10.89" duration="150.00" routeLength="989.63" waitingTime="43.00" waitingCount="2" stopTime="0.00" timeLoss="67.43" rerouteNo="0" devices="tripinfo_burst_SE.2" vType="car" speedFactor="0.88" vaporized=""/>
    <tripinfo id="burst_SE.3" depart="26.00" departLane="edge_S_in_0" departPos="5.00" departSpeed="0.00" departDelay="25.40" arrival="174.00" arrivalLane="edge_E_out_0" arrivalPos="492.80" arrivalSpeed="12.69" duration="148.00" routeLength="989.63" waitingTime="41.00" waitingCount="2" stopTime="0.00" timeLoss="75.89" rerouteNo="0" devices="tripinfo_burst_SE.3" vType="car" speedFactor="1.06" vaporized=""/>
    <tripinfo id="burst_SE.4" depart="29.00" departLane="edge_S_in_0" departPos="5.00" departSpeed="0.00" departDelay="28.20" arrival="176.00" arrivalLane="edge_E_out_0" arrivalPos="492.80" arrivalSpeed="13.01" duration="147.00" routeLength="989.63" waitingTime="41.00" waitingCount="2" stopTime="0.00" timeLoss="74.97" rerouteNo="0" devices="tripinfo_burst_SE.4" vType="car" speedFactor="1.17" vaporized=""/>
    <tripinfo id="burst_SW.1" depart="32.00" departLane="edge_S_in_0" departPos="5.00" departSpeed="0.00" departDelay="31.80" arrival="178.00" arrivalLane="edge_W_out_0" arrivalPos="492.80" arrivalSpeed="12.65" duration="146.00" routeLength="994.79" waitingTime="39.00" waitingCount="2" stopTime="0.00" timeLoss="69.41" rerouteNo="0" devices="tripinfo_burst_SW.1" vType="car" speedFactor="0.95" vaporized=""/>
    <tripinfo id="burst_EW.2" depart="11.00" departLane="edge_E_in_0" departPos="5.00" departSpeed="0.00" departDelay="10.60" arrival="181.00" arrivalLane="edge_W_out_0" arrivalPos="492.80" arrivalSpeed="12.68" duration="170.00" routeLength="995.00" waitingTime="77.00" waitingCount="2" stopTime="0.00" timeLoss="97.34" rerouteNo="0" devices="tripinfo_burst_EW.2" vType="car" speedFactor="0.99" vaporized=""/>
    <tripinfo id="burst_EW.3" depart="14.00" departLane="edge_E_in_0" departPos="5.00" departSpeed="0.00" departDelay="13.40" arrival="184.00" arrivalLane="edge_W_out_0" arrivalPos="492.80" arrivalSpeed="13.31" duration="170.00" routeLength="995.00" waitingTime="76.00" waitingCount="2" stopTime="0.00" timeLoss="95.16" rerouteNo="0" devices="tripinfo_burst_EW.3" vType="car" speedFactor="0.97" vaporized=""/>
    <tripinfo id="burst_EW.4" depart="16.00" departLane="edge_E_in_0" departPos="5.00" departSpeed="0.00" departDelay="15.20" arrival="185.00" arrivalLane="edge_W_out_0" arrivalPos="492.80" arrivalSpeed="13.53" duration="169.00" routeLength="995.00" waitingTime="75.00" waitingCount="2" stopTime="0.00" timeLoss="97.26" rerouteNo="0" devices="tripinfo_burst_EW.4" vType="car" speedFactor="1.02" vaporized=""/>
    <tripinfo id="burst_EN.1" depart="19.00" departLane="edge_E_in_0" departPos="5.00" departSpeed="0.00" departDelay="18.80" arrival="188.00" arrivalLane="edge_N_out_0" arrivalPos="492.80" arrivalSpeed="13.03" duration="169.00" routeLength="989.63" waitingTime="73.00" waitingCount="2" stopTime="0.00" timeLoss="96.88" rerouteNo="0" devices="tripinfo_burst_EN.1" vType="car" speedFactor="1.05" vaporized=""/>
    <tripinfo id="burst_NS.2" depart="12.00" departLane="edge_N_in_0" departPos="5.00" departSpeed="0.00" departDelay="11.60" arrival="198.00" arrivalLane="edge_S_out_0" arrivalPos="492.80" arrivalSpeed="11.35" duration="186.00" routeLength="995.00" waitingTime="88.00" waitingCount="2" stopTime="0.00" timeLoss="105.13" rerouteNo="0" devices="tripinfo_burst_NS.2" vType="car" speedFactor="0.89" vaporized=""/>
    <tripinfo id="burst_NS.3" depart="15.00" departLane="edge_N_in_0" departPos="5.00" departSpeed="0.00" departDelay="14.40" arrival="200.00" arrivalLane="edge_S_out_0" arrivalPos="492.80" arrivalSpeed="13.62" duration="185.00" routeLength="995.00" waitingTime="85.00" waitingCount="2" stopTime="0.00" timeLoss="112.70" rerouteNo="0" devices="tripinfo_burst_NS.3" vType="car" speedFactor="1.01" vaporized=""/>
    <tripinfo id="burst_NW.1" depart="20.00" departLane="edge_N_in_0" departPos="5.00" departSpeed="0.00" departDelay="19.80" arrival="202.00" arrivalLane="edge_W_out_0" arrivalPos="492.80" arrivalSpeed="13.63" duration="182.00" routeLength="989.63" waitingTime="80.00" waitingCount="2" stopTime="0.00" timeLoss="109.43" rerouteNo="0" devices="tripinfo_burst_NW.1" vType="car" speedFactor="1.07" vaporized=""/>
    <tripinfo id="burst_NS.4" depart="17.00" departLane="edge_N_in_0" departPos="5.00" departSpeed="0.00" departDelay="16.20" arrival="204.00" arrivalLane="edge_S_out_0" arrivalPos="492.80" arrivalSpeed="10.91" duration="187.00" routeLength="995.00" waitingTime="81.00" waitingCount="2" stopTime="0.00" timeLoss="104.78" rerouteNo="0" devices="tripinfo_burst_NS.4" vType="car" speedFactor="0.87" vaporized=""/>
    <tripinfo id="burst_WN.3" depart="25.00" departLane="edge_W_in_0" departPos="5.00" departSpeed="0.00" departDelay="24.40" arrival="207.00" arrivalLane="edge_N_out_0" arrivalPos="492.80" arrivalSpeed="12.96" duration="182.00" routeLength="994.79" waitingTime="85.00" waitingCount="2" stopTime="0.00" timeLoss="108.87" rerouteNo="0" devices="tripinfo_burst_WN.3" vType="car" speedFactor="1.00" vaporized=""/>
    <tripinfo id="burst_WN.4" depart="28.00" departLane="edge_W_in_0" departPos="5.00" departSpeed="0.00" departDelay="27.20" arrival="209.00" arrivalLane="edge_N_out_0" arrivalPos="492.80" arrivalSpeed="12.73" duration="181.00" routeLength="994.79" waitingTime="85.00" waitingCount="2" stopTime="0.00" timeLoss="108.14" rerouteNo="0" devices="tripinfo_burst_WN.4" vType="car" speedFactor="1.12" vaporized=""/>
    <tripinfo id="burst_WS.1" depart="31.00" departLane="edge_W_in_0" departPos="5.00" departSpeed="0.00" departDelay="30.80" arrival="216.00" arrivalLane="edge_S_out_0" arrivalPos="492.80" arrivalSpeed="12.17" duration="185.00" routeLength="989.63" waitingTime="81.00" waitingCount="2" stopTime="0.00" timeLoss="104.29" rerouteNo="0" devices="tripinfo_burst_WS.1" vType="car" speedFactor="0.90" vaporized=""/>
    <tripinfo id="burst_WS.2" depart="34.00" departLane="edge_W_in_0" departPos="5.00" departSpeed="0.00" departDelay="33.60" arrival="218.00" arrivalLane="edge_S_out_0" arrivalPos="492.80" arrivalSpeed="12.46" duration="184.00" routeLength="989.63" waitingTime="80.00" waitingCount="2" stopTime="0.00" timeLoss="111.34" rerouteNo="0" devices="tripinfo_burst_WS.2" vType="car" speedFactor="1.02" vaporized=""/>
    <tripinfo id="burst_WS.3" depart="37.00" departLane="edge_W_in_0" departPos="5.00" departSpeed="0.00" departDelay="36.40" arrival="220.00" arrivalLane="edge_S_out_0" arrivalPos="492.80" arrivalSpeed="13.01" duration="183.00" routeLength="989.63" waitingTime="78.00" waitingCount="2" stopTime="0.00" timeLoss="110.31" rerouteNo="0" devices="tripinfo_burst_WS.3" vType="car" speedFactor="1.08" vaporized=""/>
    <tripinfo id="burst_WS.4" depart="40.00" departLane="edge_W_in_0" departPos="5.00" departSpeed="0.00" departDelay="39.20" arrival="222.00" arrivalLane="edge_S_out_0" arrivalPos="492.80" arrivalSpeed="12.30" duration="182.00" routeLength="989.63" waitingTime="79.00" waitingCount="2" stopTime="0.00" timeLoss="107.73" rerouteNo="0" devices="tripinfo_burst_WS.4" vType="car" speedFactor="0.98" vaporized=""/>
    <tripinfo id="burst_NW.2" depart="23.00" departLane="edge_N_in_0" departPos="5.00" departSpeed="0.00" departDelay="22.60" arrival="231.00" arrivalLane="edge_W_out_0" arrivalPos="492.80" arrivalSpeed="13.18" duration="208.00" routeLength="989.63" waitingTime="101.00" waitingCount="3" stopTime="0.00" timeLoss="135.87" rerouteNo="0" devices="tripinfo_burst_NW.2" vType="car" speedFactor="1.04" vaporized=""/>
    <tripinfo id="burst_NE.1" depart="32.00" departLane="edge_N_in_0" departPos="5.00" departSpeed="0.00" departDelay="31.80" arrival="239.00" arrivalLane="edge_E_out_0" arrivalPos="492.80" arrivalSpeed="13.10" duration="207.00" routeLength="994.79" waitingTime="89.00" waitingCount="3" stopTime="0.00" timeLoss="134.39" rerouteNo="0" devices="tripinfo_burst_NE.1" vType="car" speedFactor="1.00" vaporized=""/>
    <tripinfo id="burst_EN.2" depart="22.00" departLane="edge_E_in_0" departPos="5.00" departSpeed="0.00" departDelay="21.60" arrival="244.00" arrivalLane="edge_N_out_0" arrivalPos="492.80" arrivalSpeed="12.94" duration="222.00" routeLength="989.63" waitingTime="121.00" waitingCount="3" stopTime="0.00" timeLoss="150.09" rerouteNo="0" devices="tripinfo_burst_EN.2" vType="car" speedFactor="1.00" vaporized=""/>
    <tripinfo id="burst_NW.3" depart="26.00" departLane="edge_N_in_0" departPos="5.00" departSpeed="0.00" departDelay="25.40" arrival="246.00" arrivalLane="edge_W_out_0" arrivalPos="492.80" arrivalSpeed="10.29" duration="220.00" routeLength="989.63" waitingTime="92.00" waitingCount="3" stopTime="0.00" timeLoss="126.33" rerouteNo="0" devices="tripinfo_burst_NW.3" vType="car" speedFactor="0.77" vaporized=""/>
    <tripinfo id="burst_EN.3" depart="25.00" departLane="edge_E_in_0" departPos="5.00" departSpeed="0.00" departDelay="24.40" arrival="247.00" arrivalLane="edge_N_out_0" arrivalPos="492.80" arrivalSpeed="13.78" duration="222.00" routeLength="989.63" waitingTime="119.00" waitingCount="3" stopTime="0.00" timeLoss="149.63" rerouteNo="0" devices="tripinfo_burst_EN.3" vType="car" speedFactor="1.10" vaporized=""/>
    <tripinfo id="burst_NW.4" depart="29.00" departLane="edge_N_in_0" departPos="5.00" departSpeed="0.00" departDelay="28.20" arrival="248.00" arrivalLane="edge_W_out_0" arrivalPos="492.80" arrivalSpeed="11.81" duration="219.00" routeLength="989.63" waitingTime="90.00" waitingCount="3" stopTime="0.00" timeLoss="138.46" rerouteNo="0" devices="tripinfo_burst_NW.4" vType="car" speedFactor="0.90" vaporized=""/>
    <tripinfo id="burst_ES.1" depart="30.00" departLane="edge_E_in_0" departPos="5.00" departSpeed="0.00" departDelay="29.80" arrival="253.00" arrivalLane="edge_S_out_0" arrivalPos="492.80" arrivalSpeed="13.88" duration="223.00" routeLength="994.79" waitingTime="115.00" waitingCount="3" stopTime="0.00" timeLoss="149.91" rerouteNo="0" devices="tripinfo_burst_ES.1" vType="car" speedFactor="1.12" vaporized=""/>
    <tripinfo id="burst_EN.4" depart="28.00" departLane="edge_E_in_0" departPos="5.00" departSpeed="0.00" departDelay="27.20" arrival="255.00" arrivalLane="edge_N_out_0" arrivalPos="492.80" arrivalSpeed="11.12" duration="227.00" routeLength="989.63" waitingTime="114.00" waitingCount="3" stopTime="0.00" timeLoss="146.08" rerouteNo="0" devices="tripinfo_burst_EN.4" vType="car" speedFactor="0.90" vaporized=""/>
    <tripinfo id="burst_SW.2" depart="35.00" departLane="edge_S_in_0" departPos="5.00" departSpeed="0.00" departDelay="34.60" arrival="258.00" arrivalLane="edge_W_out_0" arrivalPos="492.80" arrivalSpeed="13.11" duration="223.00" routeLength="994.79" waitingTime="117.00" waitingCount="3" stopTime="0.00" timeLoss="150.05" rerouteNo="0" devices="tripinfo_burst_SW.2" vType="car" speedFactor="1.02" vaporized=""/>
    <tripinfo id="burst_SW.3" depart="38.00" departLane="edge_S_in_0" departPos="5.00" departSpeed="0.00" departDelay="37.40" arrival="263.00" arrivalLane="edge_W_out_0" arrivalPos="492.80" arrivalSpeed="12.88" duration="225.00" routeLength="994.79" waitingTime="111.00" waitingCount="2" stopTime="0.00" timeLoss="146.71" rerouteNo="0" devices="tripinfo_burst_SW.3" vType="car" speedFactor="0.93" vaporized=""/>
    <tripinfo id="burst_SW.4" depart="41.00" departLane="edge_S_in_0" departPos="5.00" departSpeed="0.00" departDelay="40.20" arrival="265.00" arrivalLane="edge_W_out_0" arrivalPos="492.80" arrivalSpeed="13.01" duration="224.00" routeLength="994.79" waitingTime="111.00" waitingCount="3" stopTime="0.00" timeLoss="151.03" rerouteNo="0" devices="tripinfo_burst_SW.4" vType="car" speedFactor="1.06" vaporized=""/>
    <tripinfo id="burst_ES.2" depart="34.00" departLane="edge_E_in_0" departPos="5.00" departSpeed="0.00" departDelay="33.60" arrival="321.00" arrivalLane="edge_S_out_0" arrivalPos="492.80" arrivalSpeed="12.88" duration="287.00" routeLength="994.79" waitingTime="175.00" waitingCount="4" stopTime="0.00" timeLoss="214.33" rerouteNo="0" devices="tripinfo_burst_ES.2" vType="car" speedFactor="1.03" vaporized=""/>
    <tripinfo id="burst_ES.3" depart="37.00" departLane="edge_E_in_0" departPos="5.00" departSpeed="0.00" departDelay="36.40" arrival="326.00" arrivalLane="edge_S_out_0" arrivalPos="492.80" arrivalSpeed="12.40" duration="289.00" routeLength="994.79" waitingTime="169.00" waitingCount="4" stopTime="0.00" timeLoss="210.20" rerouteNo="0" devices="tripinfo_burst_ES.3" vType="car" speedFactor="0.92" vaporized=""/>
    <tripinfo id="burst_ES.4" depart="40.00" departLane="edge_E_in_0" departPos="5.00" departSpeed="0.00" departDelay="39.20" arrival="328.00" arrivalLane="edge_S_out_0" arrivalPos="492.80" arrivalSpeed="13.87" duration="288.00" routeLength="994.79" waitingTime="168.00" waitingCount="4" stopTime="0.00" timeLoss="215.64" rerouteNo="0" devices="tripinfo_burst_ES.4" vType="car" speedFactor="1.09" vaporized=""/>
    <tripinfo id="burst_NE.2" depart="35.00" departLane="edge_N_in_0" departPos="5.00" departSpeed="0.00" departDelay="34.60" arrival="335.00" arrivalLane="edge_E_out_0" arrivalPos="492.80" arrivalSpeed="13.00" duration="300.00" routeLength="994.79" waitingTime="177.00" waitingCount="4" stopTime="0.00" timeLoss="225.77" rerouteNo="0" devices="tripinfo_burst_NE.2" vType="car" speedFactor="0.99" vaporized=""/>
    <tripinfo id="burst_NE.3" depart="38.00" departLane="edge_N_in_0" departPos="5.00" departSpeed="0.00" departDelay="37.40" arrival="338.00" arrivalLane="edge_E_out_0" arrivalPos="492.80" arrivalSpeed="12.19" duration="300.00" routeLength="994.79" waitingTime="172.00" waitingCount="4" stopTime="0.00" timeLoss="224.24" rerouteNo="0" devices="tripinfo_burst_NE.3" vType="car" speedFactor="0.96" vaporized=""/>
    <tripinfo id="burst_NE.4" depart="41.00" departLane="edge_N_in_0" departPos="5.00" departSpeed="0.00" departDelay="40.20" arrival="343.00" arrivalLane="edge_E_out_0" arrivalPos="492.80" arrivalSpeed="12.59" duration="302.00" routeLength="994.79" waitingTime="171.00" waitingCount="4" stopTime="0.00" timeLoss="221.89" rerouteNo="0" devices="tripinfo_burst_NE.4" vType="car" speedFactor="0.91" vaporized=""/>
</tripinfos>
