<?xml version="1.0" encoding="UTF-8"?>

<!-- generated on 2026-02-20T02:06:49.776323+05:30 by Eclipse SUMO sumo 1.25.0
<sumoConfiguration xmlns:xsi="http://www.w3.org/2001/XMLSchema-instance" xsi:noNamespaceSchemaLocation="http://sumo.dlr.de/xsd/sumoConfiguration.xsd">

    <input>
        <net-file value="C:\Users\gathi\projects\FedTraffic-RL\sumo_config\hello.net.xml"/>
        <route-files value="C:\Users\gathi\projects\FedTraffic-RL\sumo_config\hello.rou.xml"/>
        <additional-files value="C:\Users\gathi\projects\FedTraffic-RL\sumo_config\hello.view.xml"/>
    </input>

    <output>
        <tripinfo-output value="C:\Users\gathi\projects\FedTraffic-RL\sumo_config\tripinfo.xml"/>
    </output>

    <time>
        <begin value="0"/>
        <end value="1000"/>
    </time>

    <report>
        <no-warnings value="true"/>
        <log value="C:\Users\gathi\projects\FedTraffic-RL\sumo_config\sumo_debug.log"/>
        <error-log value="C:\Users\gathi\projects\FedTraffic-RL\sumo_config\sumo_debug.log"/>
        <no-step-log value="true"/>
    </report>

    <traci_server>
        <remote-port value="55645"/>
    </traci_server>

    <gui_only>
        <quit-on-end value="true"/>
        <start value="true"/>
    </gui_only>

</sumoConfiguration>
-->

<tripinfos xmlns:xsi="http://www.w3.org/2001/XMLSchema-instance" xsi:noNamespaceSchemaLocation="http://sumo.dlr.de/xsd/tripinfo_file.xsd">
    <tripinfo id="lull_EW.0" depart="0.00" departLane="edge_E_in_0" departPos="5.00" departSpeed="0.00" departDelay="0.00" arrival="78.00" arrivalLane="edge_W_out_0" arrivalPos="492.80" arrivalSpeed="13.74" duration="78.00" routeLength="995.00" waitingTime="0.00" waitingCount="0" stopTime="0.00" timeLoss="8.52" rerouteNo="0" devices="tripinfo_lull_EW.0" vType="car" speedFactor="1.04" vaporized=""/>
    <tripinfo id="lull_EW.1" depart="3.00" departLane="edge_E_in_0" departPos="5.00" departSpeed="0.00" departDelay="1.00" arrival="83.00" arrivalLane="edge_W_out_0" arrivalPos="492.80" arrivalSpeed="13.63" duration="80.00" routeLength="995.00" waitingTime="0.00" waitingCount="0" stopTime="0.00" timeLoss="8.13" rerouteNo="0" devices="tripinfo_lull_EW.1" vType="car" speedFactor="1.01" vaporized=""/>
    <tripinfo id="lull_EW.2" depart="7.00" departLane="edge_E_in_0" departPos="5.00" departSpeed="0.00" departDelay="0.00" arrival="95.00" arrivalLane="edge_W_out_0" arrivalPos="492.80" arrivalSpeed="12.31" duration="88.00" routeLength="995.00" waitingTime="0.00" waitingCount="0" stopTime="0.00" timeLoss="7.36" rerouteNo="0" devices="tripinfo_lull_EW.2" vType="car" speedFactor="0.90" vaporized=""/>
    <tripinfo id="lull_SN.0" depart="1.00" departLane="edge_S_in_0" departPos="5.00" departSpeed="0.00" departDelay="0.00" arrival="113.00" arrivalLane="edge_N_out_0" arrivalPos="492.80" arrivalSpeed="14.11" duration="112.00" routeLength="995.00" waitingTime="33.00" waitingCount="1" stopTime="0.00" timeLoss="45.55" rerouteNo="0" devices="tripinfo_lull_SN.0" vType="car" speedFactor="1.16" vaporized=""/>
    <tripinfo id="lull_SN.1" depart="30.00" departLane="edge_S_in_0" departPos="5.00" departSpeed="0.00" departDelay="0.00" arrival="124.00" arrivalLane="edge_N_out_0" arrivalPos="492.80" arrivalSpeed="11.64" duration="94.00" routeLength="995.00" waitingTime="0.00" waitingCount="0" stopTime="0.00" timeLoss="10.52" rerouteNo="0" devices="tripinfo_lull_SN.1" vType="car" speedFactor="0.86" vaporized=""/>
    <tripinfo id="lull_SN.2" depart="38.00" departLane="edge_S_in_0" departPos="5.00" departSpeed="0.00" departDelay="0.00" arrival="126.00" arrivalLane="edge_N_out_0" arrivalPos="492.80" arrivalSpeed="13.24" duration="88.00" routeLength="995.00" waitingTime="0.00" waitingCount="0" stopTime="0.00" timeLoss="15.91" rerouteNo="0" devices="tripinfo_lull_SN.2" vType="car" speedFactor="1.00" vaporized=""/>
    <tripinfo id="lull_WE.0" depart="8.00" departLane="edge_W_in_0" departPos="5.00" departSpeed="0.00" departDelay="0.00" arrival="143.00" arrivalLane="edge_E_out_0" arrivalPos="492.80" arrivalSpeed="12.65" duration="135.00" routeLength="995.00" waitingTime="50.00" waitingCount="1" stopTime="0.00" timeLoss="61.51" rerouteNo="0" devices="tripinfo_lull_WE.0" vType="car" speedFactor="0.98" vaporized=""/>
    <tripinfo id="lull_SN.3" depart="52.00" departLane="edge_S_in_0" departPos="2.10" departSpeed="0.00" departDelay="0.00" arrival="151.00" arrivalLane="edge_N_out_0" arrivalPos="492.80" arrivalSpeed="14.39" duration="99.00" routeLength="997.90" waitingTime="22.00" waitingCount="1" stopTime="0.00" timeLoss="33.40" rerouteNo="0" devices="tripinfo_lull_SN.3" vType="moto" speedFactor="1.11" vaporized=""/>
    <tripinfo id="lull_SN.4" depart="55.00" departLane="edge_S_in_0" departPos="5.00" departSpeed="0.00" departDelay="0.00" arrival="157.00" arrivalLane="edge_N_out_0" arrivalPos="492.80" arrivalSpeed="13.19" duration="102.00" routeLength="995.00" waitingTime="17.00" waitingCount="1" stopTime="0.00" timeLoss="28.80" rerouteNo="0" devices="tripinfo_lull_SN.4" vType="car" speedFactor="0.99" vaporized=""/>
    <tripinfo id="lull_SN.5" depart="61.00" departLane="edge_S_in_0" departPos="5.00" departSpeed="0.00" departDelay="0.00" arrival="159.00" arrivalLane="edge_N_out_0" arrivalPos="492.80" arrivalSpeed="12.74" duration="98.00" routeLength="995.00" waitingTime="11.00" waitingCount="1" stopTime="0.00" timeLoss="25.71" rerouteNo="0" devices="tripinfo_lull_SN.5" vType="car" speedFactor="0.99" vaporized=""/>
    <tripinfo id="lull_WE.1" depart="15.00" departLane="edge_W_in_0" departPos="12.10" departSpeed="0.00" departDelay="0.00" arrival="160.00" arrivalLane="edge_E_out_0" arrivalPos="492.80" arrivalSpeed="9.84" duration="145.00" routeLength="987.90" waitingTime="30.00" waitingCount="1" stopTime="0.00" timeLoss="45.69" rerouteNo="0" devices="tripinfo_lull_WE.1" vType="bus" speedFactor="0.99" vaporized=""/>
    <tripinfo id="lull_WE.2" depart="35.00" departLane="edge_W_in_0" departPos="2.10" departSpeed="0.00" departDelay="0.00" arrival="162.00" arrivalLane="edge_E_out_0" arrivalPos="492.80" arrivalSpeed="13.97" duration="127.00" routeLength="997.90" waitingTime="28.00" waitingCount="1" stopTime="0.00" timeLoss="56.66" rerouteNo="0" devices="tripinfo_lull_WE.2" vType="moto" speedFactor="1.03" vaporized=""/>
    <tripinfo id="lull_EW.3" depart="62.00" departLane="edge_E_in_0" departPos="5.00" departSpeed="0.00" departDelay="0.00" arrival="165.00" arrivalLane="edge_W_out_0" arrivalPos="492.80" arrivalSpeed="14.40" duration="103.00" routeLength="995.00" waitingTime="24.00" waitingCount="1" stopTime="0.00" timeLoss="36.57" rerouteNo="0" devices="tripinfo_lull_EW.3" vType="car" speedFactor="1.09" vaporized=""/>
    <tripinfo id="lull_EW.4" depart="68.00" departLane="edge_E_in_0" departPos="5.00" departSpeed="0.00" departDelay="0.00" arrival="168.00" arrivalLane="edge_W_out_0" arrivalPos="492.80" arrivalSpeed="14.81" duration="100.00" routeLength="995.00" waitingTime="21.00" waitingCount="1" stopTime="0.00" timeLoss="32.89" rerouteNo="0" devices="tripinfo_lull_EW.4" vType="car" speedFactor="1.11" vaporized=""/>
    <tripinfo id="lull_NS.0" depart="5.00" departLane="edge_N_in_0" departPos="5.00" departSpeed="0.00" departDelay="0.00" arrival="180.00" arrivalLane="edge_S_out_0" arrivalPos="492.80" arrivalSpeed="13.85" duration="175.00" routeLength="995.00" waitingTime="93.00" waitingCount="1" stopTime="0.00" timeLoss="105.32" rerouteNo="0" devices="tripinfo_lull_NS.0" vType="car" speedFactor="1.04" vaporized=""/>
    <tripinfo id="lull_NS.1" depart="19.00" departLane="edge_N_in_0" departPos="5.00" departSpeed="0.00" departDelay="0.00" arrival="188.00" arrivalLane="edge_S_out_0" arrivalPos="492.80" arrivalSpeed="11.47" duration="169.00" routeLength="995.00" waitingTime="74.00" waitingCount="1" stopTime="0.00" timeLoss="86.98" rerouteNo="0" devices="tripinfo_lull_NS.1" vType="car" speedFactor="0.88" vaporized=""/>
    <tripinfo id="lull_NS.2" depart="23.00" departLane="edge_N_in_0" departPos="5.00" departSpeed="0.00" departDelay="0.00" arrival="189.00" arrivalLane="edge_S_out_0" arrivalPos="492.80" arrivalSpeed="13.05" duration="166.00" routeLength="995.00" waitingTime="74.00" waitingCount="1" stopTime="0.00" timeLoss="99.47" rerouteNo="0" devices="tripinfo_lull_NS.2" vType="car" speedFactor="1.08" vaporized=""/>
    <tripinfo id="lull_EW.5" depart="79.00" departLane="edge_E_in_0" departPos="12.10" departSpeed="0.00" departDelay="0.00" arrival="189.00" arrivalLane="edge_W_out_0" arrivalPos="492.80" arrivalSpeed="9.67" duration="110.00" routeLength="987.90" waitingTime="0.00" waitingCount="0" stopTime="0.00" timeLoss="10.82" rerouteNo="0" devices="tripinfo_lull_EW.5" vType="bus" speedFactor="0.92" vaporized=""/>
    <tripinfo id="lull_WE.3" depart="50.00" departLane="edge_W_in_0" departPos="5.00" departSpeed="0.00" departDelay="0.00" arrival="193.00" arrivalLane="edge_E_out_0" arrivalPos="492.80" arrivalSpeed="14.09" duration="143.00" routeLength="995.00" waitingTime="56.00" waitingCount="2" stopTime="0.00" timeLoss="73.71" rerouteNo="0" devices="tripinfo_lull_WE.3" vType="car" speedFactor="1.04" vaporized=""/>
    <tripinfo id="lull_WE.4" depart="60.00" departLane="edge_W_in_0" departPos="5.00" departSpeed="0.00" departDelay="0.00" arrival="197.00" arrivalLane="edge_E_out_0" arrivalPos="492.80" arrivalSpeed="13.16" duration="137.00" routeLength="995.00" waitingTime="42.00" waitingCount="2" stopTime="0.00" timeLoss="62.40" rerouteNo="0" devices="tripinfo_lull_WE.4" vType="car" speedFactor="0.97" vaporized=""/>
    <tripinfo id="lull_WE.5" depart="67.00" departLane="edge_W_in_0" departPos="5.00" departSpeed="0.00" departDelay="0.00" arrival="204.00" arrivalLane="edge_E_out_0" arrivalPos="492.80" arrivalSpeed="11.41" duration="137.00" routeLength="995.00" waitingTime="38.00" waitingCount="1" stopTime="0.00" timeLoss="52.72" rerouteNo="0" devices="tripinfo_lull_WE.5" vType="car" speedFactor="0.85" vaporized=""/>
    <tripinfo id="lull_WE.6" depart="75.00" departLane="edge_W_in_0" departPos="5.00" departSpeed="0.00" departDelay="0.00" arrival="206.00" arrivalLane="edge_E_out_0" arrivalPos="492.80" arrivalSpeed="12.41" duration="131.00" routeLength="995.00" waitingTime="37.00" waitingCount="1" stopTime="0.00" timeLoss="55.19" rerouteNo="0" devices="tripinfo_lull_WE.6" vType="car" speedFactor="0.95" vaporized=""/>
    <tripinfo id="lull_EW.6" depart="111.00" departLane="edge_E_in_0" departPos="5.00" departSpeed="0.00" departDelay="0.00" arrival="208.00" arrivalLane="edge_W_out_0" arrivalPos="492.80" arrivalSpeed="13.13" duration="97.00" routeLength="995.00" waitingTime="10.00" waitingCount="1" stopTime="0.00" timeLoss="23.72" rerouteNo="0" devices="tripinfo_lull_EW.6" vType="car" speedFactor="0.99" vaporized=""/>
    <tripinfo id="lull_WE.7" depart="78.00" departLane="edge_W_in_0" departPos="5.00" departSpeed="0.00" departDelay="1.00" arrival="222.00" arrivalLane="edge_E_out_0" arrivalPos="492.80" arrivalSpeed="11.88" duration="144.00" routeLength="995.00" waitingTime="47.00" waitingCount="2" stopTime="0.00" timeLoss="66.85" rerouteNo="0" devices="tripinfo_lull_WE.7" vType="car" speedFactor="0.93" vaporized=""/>
    <tripinfo id="lull_WE.8" depart="123.00" departLane="edge_W_in_0" departPos="5.00" departSpeed="0.00" departDelay="0.00" arrival="228.00" arrivalLane="edge_E_out_0" arrivalPos="492.80" arrivalSpeed="11.35" duration="105.00" routeLength="995.00" waitingTime="8.00" waitingCount="1" stopTime="0.00" timeLoss="21.12" rerouteNo="0" devices="tripinfo_lull_WE.8" vType="car" speedFactor="0.86" vaporized=""/>
    <tripinfo id="lull_WE.9" depart="150.00" departLane="edge_W_in_0" departPos="5.00" departSpeed="0.00" departDelay="0.00" arrival="245.00" arrivalLane="edge_E_out_0" arrivalPos="492.80" arrivalSpeed="13.60" duration="95.00" routeLength="995.00" waitingTime="13.00" waitingCount="1" stopTime="0.00" timeLoss="23.70" rerouteNo="0" devices="tripinfo_lull_WE.9" vType="car" speedFactor="1.01" vaporized=""/>
    <tripinfo id="lull_EW.7" depart="123.00" departLane="edge_E_in_0" departPos="5.00" departSpeed="0.00" departDelay="0.00" arrival="247.00" arrivalLane="edge_W_out_0" arrivalPos="492.80" arrivalSpeed="10.01" duration="124.00" routeLength="995.00" waitingTime="14.00" waitingCount="1" stopTime="0.00" timeLoss="25.47" rerouteNo="0" devices="tripinfo_lull_EW.7" vType="car" speedFactor="0.73" vaporized=""/>
    <tripinfo id="lull_WE.10" depart="165.00" departLane="edge_W_in_0" departPos="2.10" departSpeed="0.00" departDelay="2.00" arrival="247.00" arrivalLane="edge_E_out_0" arrivalPos="492.80" arrivalSpeed="14.76" duration="82.00" routeLength="997.90" waitingTime="1.00" waitingCount="1" stopTime="0.00" timeLoss="16.31" rerouteNo="0" devices="tripinfo_lull_WE.10" vType="moto" speedFactor="1.10" vaporized=""/>
    <tripinfo id="lull_EW.8" depart="127.00" departLane="edge_E_in_0" departPos="2.10" departSpeed="0.00" departDelay="0.00" arrival="249.00" arrivalLane="edge_W_out_0" arrivalPos="492.80" arrivalSpeed="13.89" duration="122.00" routeLength="997.90" waitingTime="13.00" waitingCount="1" stopTime="0.00" timeLoss="57.24" rerouteNo="0" devices="tripinfo_lull_EW.8" vType="moto" speedFactor="1.12" vaporized=""/>
    <tripinfo id="lull_NS.3" depart="39.00" departLane="edge_N_in_0" departPos="12.10" departSpeed="0.00" departDelay="0.00" arrival="287.00" arrivalLane="edge_S_out_0" arrivalPos="492.80" arrivalSpeed="9.81" duration="248.00" routeLength="987.90" waitingTime="127.00" waitingCount="2" stopTime="0.00" timeLoss="149.09" rerouteNo="0" devices="tripinfo_lull_NS.3" vType="bus" speedFactor="0.84" vaporized=""/>
    <tripinfo id="lull_NS.4" depart="60.00" departLane="edge_N_in_0" departPos="2.10" departSpeed="0.00" departDelay="0.00" arrival="290.00" arrivalLane="edge_S_out_0" arrivalPos="492.80" arrivalSpeed="12.43" duration="230.00" routeLength="997.90" waitingTime="121.00" waitingCount="2" stopTime="0.00" timeLoss="156.65" rerouteNo="0" devices="tripinfo_lull_NS.4" vType="moto" speedFactor="0.99" vaporized=""/>
    <tripinfo id="lull_NS.5" depart="62.00" departLane="edge_N_in_0" departPos="5.00" departSpeed="0.00" departDelay="1.00" arrival="291.00" arrivalLane="edge_S_out_0" arrivalPos="492.80" arrivalSpeed="11.20" duration="229.00" routeLength="995.00" waitingTime="111.00" waitingCount="2" stopTime="0.00" timeLoss="142.92" rerouteNo="0" devices="tripinfo_lull_NS.5" vType="car" speedFactor="0.83" vaporized=""/>
    <tripinfo id="lull_WE.11" depart="215.00" departLane="edge_W_in_0" departPos="5.00" departSpeed="0.00" departDelay="0.00" arrival="298.00" arrivalLane="edge_E_out_0" arrivalPos="492.80" arrivalSpeed="12.96" duration="83.00" routeLength="995.00" waitingTime="0.00" waitingCount="0" stopTime="0.00" timeLoss="7.13" rerouteNo="0" devices="tripinfo_lull_WE.11" vType="car" speedFactor="0.95" vaporized=""/>
    <tripinfo id="lull_SN.6" depart="90.00" departLane="edge_S_in_0" departPos="5.00" departSpeed="0.00" departDelay="0.00" arrival="313.00" arrivalLane="edge_N_out_0" arrivalPos="492.80" arrivalSpeed="11.57" duration="223.00" routeLength="995.00" waitingTime="131.00" waitingCount="1" stopTime="0.00" timeLoss="143.18" rerouteNo="0" devices="tripinfo_lull_SN.6" vType="car" speedFactor="0.90" vaporized=""/>
    <tripinfo id="lull_SN.7" depart="93.00" departLane="edge_S_in_0" departPos="5.00" departSpeed="0.00" departDelay="1.00" arrival="315.00" arrivalLane="edge_N_out_0" arrivalPos="492.80" arrivalSpeed="13.87" duration="222.00" routeLength="995.00" waitingTime="129.00" waitingCount="1" stopTime="0.00" timeLoss="153.91" rerouteNo="0" devices="tripinfo_lull_SN.7" vType="car" speedFactor="1.06" vaporized=""/>
    <tripinfo id="lull_SN.8" depart="96.00" departLane="edge_S_in_0" departPos="2.10" departSpeed="0.00" departDelay="3.00" arrival="317.00" arrivalLane="edge_N_out_0" arrivalPos="492.80" arrivalSpeed="12.12" duration="221.00" routeLength="997.90" waitingTime="127.00" waitingCount="1" stopTime="0.00" timeLoss="143.65" rerouteNo="0" devices="tripinfo_lull_SN.8" vType="moto" speedFactor="0.94" vaporized=""/>
    <tripinfo id="lull_SN.9" depart="118.00" departLane="edge_S_in_0" departPos="5.00" departSpeed="0.00" departDelay="0.00" arrival="318.00" arrivalLane="edge_N_out_0" arrivalPos="492.80" arrivalSpeed="13.86" duration="200.00" routeLength="995.00" waitingTime="113.00" waitingCount="1" stopTime="0.00" timeLoss="129.98" rerouteNo="0" devices="tripinfo_lull_SN.9" vType="car" speedFactor="1.03" vaporized=""/>
    <tripinfo id="lull_SN.10" depart="121.00" departLane="edge_S_in_0" departPos="5.00" departSpeed="0.00" departDelay="1.00" arrival="320.00" arrivalLane="edge_N_out_0" arrivalPos="492.80" arrivalSpeed="13.76" duration="199.00" routeLength="995.00" waitingTime="108.00" waitingCount="1" stopTime="0.00" timeLoss="126.69" rerouteNo="0" devices="tripinfo_lull_SN.10" vType="car" speedFactor="1.00" vaporized=""/>
    <tripinfo id="lull_SN.11" depart="148.00" departLane="edge_S_in_0" departPos="5.00" departSpeed="0.00" departDelay="0.00" arrival="322.00" arrivalLane="edge_N_out_0" arrivalPos="492.80" arrivalSpeed="13.82" duration="174.00" routeLength="995.00" waitingTime="84.00" waitingCount="1" stopTime="0.00" timeLoss="103.24" rerouteNo="0" devices="tripinfo_lull_SN.11" vType="car" speedFactor="1.02" vaporized=""/>
    <tripinfo id="lull_SN.12" depart="184.00" departLane="edge_S_in_0" departPos="2.10" departSpeed="0.00" departDelay="0.00" arrival="325.00" arrivalLane="edge_N_out_0" arrivalPos="492.80" arrivalSpeed="13.31" duration="141.00" routeLength="997.90" waitingTime="50.00" waitingCount="1" stopTime="0.00" timeLoss="68.70" rerouteNo="0" devices="tripinfo_lull_SN.12" vType="moto" speedFactor="1.00" vaporized=""/>
    <tripinfo id="lull_SN.13" depart="207.00" departLane="edge_S_in_0" departPos="5.00" departSpeed="0.00" departDelay="0.00" arrival="327.00" arrivalLane="edge_N_out_0" arrivalPos="492.80" arrivalSpeed="14.60" duration="120.00" routeLength="995.00" waitingTime="30.00" waitingCount="1" stopTime="0.00" timeLoss="52.69" rerouteNo="0" devices="tripinfo_lull_SN.13" vType="car" speedFactor="1.08" vaporized=""/>
    <tripinfo id="lull_NS.6" depart="70.00" departLane="edge_N_in_0" departPos="5.00" departSpeed="0.00" departDelay="0.00" arrival="332.00" arrivalLane="edge_S_out_0" arrivalPos="492.80" arrivalSpeed="14.42" duration="262.00" routeLength="995.00" waitingTime="161.00" waitingCount="3" stopTime="0.00" timeLoss="194.88" rerouteNo="0" devices="tripinfo_lull_NS.6" vType="car" speedFactor="1.08" vaporized=""/>
    <tripinfo id="lull_NS.7" depart="142.00" departLane="edge_N_in_0" departPos="2.10" departSpeed="0.00" departDelay="0.00" arrival="338.00" arrivalLane="edge_S_out_0" arrivalPos="492.80" arrivalSpeed="12.86" duration="196.00" routeLength="997.90" waitingTime="99.00" waitingCount="2" stopTime="0.00" timeLoss="121.53" rerouteNo="0" devices="tripinfo_lull_NS.7" vType="moto" speedFactor="0.98" vaporized=""/>
    <tripinfo id="lull_NS.8" depart="151.00" departLane="edge_N_in_0" departPos="5.00" departSpeed="0.00" departDelay="2.00" arrival="339.00" arrivalLane="edge_S_out_0" arrivalPos="492.80" arrivalSpeed="14.38" duration="188.00" routeLength="995.00" waitingTime="95.00" waitingCount="2" stopTime="0.00" timeLoss="121.18" rerouteNo="0" devices="tripinfo_lull_NS.8" vType="car" speedFactor="1.13" vaporized=""/>
    <tripinfo id="lull_NS.9" depart="205.00" departLane="edge_N_in_0" departPos="5.00" departSpeed="0.00" departDelay="0.00" arrival="343.00" arrivalLane="edge_S_out_0" arrivalPos="492.80" arrivalSpeed="12.91" duration="138.00" routeLength="995.00" waitingTime="47.00" waitingCount="1" stopTime="0.00" timeLoss="62.66" rerouteNo="0" devices="tripinfo_lull_NS.9" vType="car" speedFactor="0.96" vaporized=""/>
    <tripinfo id="lull_WE.12" depart="237.00" departLane="edge_W_in_0" departPos="5.00" departSpeed="0.00" departDelay="0.00" arrival="353.00" arrivalLane="edge_E_out_0" arrivalPos="492.80" arrivalSpeed="12.32" duration="116.00" routeLength="995.00" waitingTime="20.00" waitingCount="1" stopTime="0.00" timeLoss="34.35" rerouteNo="0" devices="tripinfo_lull_WE.12" vType="car" speedFactor="0.89" vaporized=""/>
    <tripinfo id="lull_WE.13" depart="240.00" departLane="edge_W_in_0" departPos="5.00" departSpeed="0.00" departDelay="0.00" arrival="354.00" arrivalLane="edge_E_out_0" arrivalPos="492.80" arrivalSpeed="13.15" duration="114.00" routeLength="995.00" waitingTime="20.00" waitingCount="1" stopTime="0.00" timeLoss="43.21" rerouteNo="0" devices="tripinfo_lull_WE.13" vType="car" speedFactor="1.02" vaporized=""/>
    <tripinfo id="lull_NS.10" depart="209.00" departLane="edge_N_in_0" departPos="2.10" departSpeed="0.00" departDelay="0.00" arrival="356.00" arrivalLane="edge_S_out_0" arrivalPos="492.80" arrivalSpeed="14.00" duration="147.00" routeLength="997.90" waitingTime="60.00" waitingCount="2" stopTime="0.00" timeLoss="81.40" rerouteNo="0" devices="tripinfo_lull_NS.10" vType="moto" speedFactor="1.10" vaporized=""/>
    <tripinfo id="lull_NS.11" depart="226.00" departLane="edge_N_in_0" departPos="5.00" departSpeed="0.00" departDelay="0.00" arrival="366.00" arrivalLane="edge_S_out_0" arrivalPos="492.80" arrivalSpeed="11.99" duration="140.00" routeLength="995.00" waitingTime="37.00" waitingCount="2" stopTime="0.00" timeLoss="57.18" rerouteNo="0" devices="tripinfo_lull_NS.11" vType="car" speedFactor="0.87" vaporized=""/>
    <tripinfo id="lull_NS.12" depart="260.00" departLane="edge_N_in_0" departPos="5.00" departSpeed="0.00" departDelay="0.00" arrival="368.00" arrivalLane="edge_S_out_0" arrivalPos="492.80" arrivalSpeed="13.77" duration="108.00" routeLength="995.00" waitingTime="11.00" waitingCount="1" stopTime="0.00" timeLoss="39.06" rerouteNo="0" devices="tripinfo_lull_NS.12" vType="car" speedFactor="1.05" vaporized=""/>
    <tripinfo id="lull_NS.13" depart="268.00" departLane="edge_N_in_0" departPos="5.00" departSpeed="0.00" departDelay="0.00" arrival="370.00" arrivalLane="edge_S_out_0" arrivalPos="492.80" arrivalSpeed="13.00" duration="102.00" routeLength="995.00" waitingTime="11.00" waitingCount="1" stopTime="0.00" timeLoss="27.94" rerouteNo="0" devices="tripinfo_lull_NS.13" vType="car" speedFactor="0.98" vaporized=""/>
    <tripinfo id="lull_WE.14" depart="285.00" departLane="edge_W_in_0" departPos="5.00" departSpeed="0.00" departDelay="0.00" arrival="375.00" arrivalLane="edge_E_out_0" arrivalPos="492.80" arrivalSpeed="12.16" duration="90.00" routeLength="995.00" waitingTime="1.00" waitingCount="1" stopTime="0.00" timeLoss="13.57" rerouteNo="0" devices="tripinfo_lull_WE.14" vType="car" speedFactor="0.94" vaporized=""/>
    <tripinfo id="lull_WE.15" depart="296.00" departLane="edge_W_in_0" departPos="5.00" departSpeed="0.00" departDelay="0.00" arrival="378.00" arrivalLane="edge_E_out_0" arrivalPos="492.80" arrivalSpeed="12.38" duration="82.00" routeLength="995.00" waitingTime="0.00" waitingCount="0" stopTime="0.00" timeLoss="7.13" rerouteNo="0" devices="tripinfo_lull_WE.15" vType="car" speedFactor="0.97" vaporized=""/>
    <tripinfo id="lull_WE.16" depart="301.00" departLane="edge_W_in_0" departPos="2.10" departSpeed="0.00" departDelay="0.00" arrival="383.00" arrivalLane="edge_E_out_0" arrivalPos="492.80" arrivalSpeed="13.10" duration="82.00" routeLength="997.90" waitingTime="0.00" waitingCount="0" stopTime="0.00" timeLoss="12.65" rerouteNo="0" devices="tripinfo_lull_WE.16" vType="moto" speedFactor="1.04" vaporized=""/>
    <tripinfo id="lull_EW.9" depart="175.00" departLane="edge_E_in_0" departPos="2.10" departSpeed="0.00" departDelay="0.00" arrival="392.00" arrivalLane="edge_W_out_0" arrivalPos="492.80" arrivalSpeed="15.19" duration="217.00" routeLength="997.90" waitingTime="145.00" waitingCount="1" stopTime="0.00" timeLoss="156.33" rerouteNo="0" devices="tripinfo_lull_EW.9" vType="moto" speedFactor="1.20" vaporized=""/>
    <tripinfo id="lull_EW.10" depart="199.00" departLane="edge_E_in_0" departPos="5.00" departSpeed="0.00" departDelay="0.00" arrival="403.00" arrivalLane="edge_W_out_0" arrivalPos="492.80" arrivalSpeed="12.25" duration="204.00" routeLength="995.00" waitingTime="113.00" waitingCount="1" stopTime="0.00" timeLoss="125.33" rerouteNo="0" devices="tripinfo_lull_EW.10" vType="car" speedFactor="0.92" vaporized=""/>
    <tripinfo id="lull_EW.11" depart="206.00" departLane="edge_E_in_0" departPos="5.00" departSpeed="0.00" departDelay="6.00" arrival="404.00" arrivalLane="edge_W_out_0" arrivalPos="492.80" arrivalSpeed="13.59" duration="198.00" routeLength="995.00" waitingTime="110.00" waitingCount="1" stopTime="0.00" timeLoss="124.82" rerouteNo="0" devices="tripinfo_lull_EW.11" vType="car" speedFactor="0.98" vaporized=""/>
    <tripinfo id="lull_EW.12" depart="232.00" departLane="edge_E_in_0" departPos="5.00" departSpeed="0.00" departDelay="0.00" arrival="406.00" arrivalLane="edge_W_out_0" arrivalPos="492.80" arrivalSpeed="12.70" duration="174.00" routeLength="995.00" waitingTime="84.00" waitingCount="1" stopTime="0.00" timeLoss="100.49" rerouteNo="0" devices="tripinfo_lull_EW.12" vType="car" speedFactor="0.98" vaporized=""/>
    <tripinfo id="lull_WE.17" depart="306.00" departLane="edge_W_in_0" departPos="5.00" departSpeed="0.00" departDelay="0.00" arrival="421.00" arrivalLane="edge_E_out_0" arrivalPos="492.80" arrivalSpeed="10.56" duration="115.00" routeLength="995.00" waitingTime="12.00" waitingCount="1" stopTime="0.00" timeLoss="23.98" rerouteNo="0" devices="tripinfo_lull_WE.17" vType="car" speedFactor="0.79" vaporized=""/>
    <tripinfo id="lull_WE.18" depart="330.00" departLane="edge_W_in_0" departPos="5.00" departSpeed="0.00" departDelay="0.00" arrival="423.00" arrivalLane="edge_E_out_0" arrivalPos="492.80" arrivalSpeed="13.22" duration="93.00" routeLength="995.00" waitingTime="1.00" waitingCount="1" stopTime="0.00" timeLoss="25.82" rerouteNo="0" devices="tripinfo_lull_WE.18" vType="car" speedFactor="1.10" vaporized=""/>
    <tripinfo id="lull_SN.14" depart="218.00" departLane="edge_S_in_0" departPos="5.00" departSpeed="0.00" departDelay="0.00" arrival="427.00" arrivalLane="edge_N_out_0" arrivalPos="492.80" arrivalSpeed="12.69" duration="209.00" routeLength="995.00" waitingTime="107.00" waitingCount="2" stopTime="0.00" timeLoss="130.68" rerouteNo="0" devices="tripinfo_lull_SN.14" vType="car" speedFactor="0.92" vaporized=""/>
    <tripinfo id="lull_SN.15" depart="230.00" departLane="edge_S_in_0" departPos="5.00" departSpeed="0.00" departDelay="0.00" arrival="429.00" arrivalLane="edge_N_out_0" arrivalPos="492.80" arrivalSpeed="11.65" duration="199.00" routeLength="995.00" waitingTime="95.00" waitingCount="2" stopTime="0.00" timeLoss="120.05" rerouteNo="0" devices="tripinfo_lull_SN.15" vType="car" speedFactor="0.91" vaporized=""/>
    <tripinfo id="lull_SN.16" depart="244.00" departLane="edge_S_in_0" departPos="5.00" departSpeed="0.00" departDelay="0.00" arrival="431.00" arrivalLane="edge_N_out_0" arrivalPos="492.80" arrivalSpeed="12.98" duration="187.00" routeLength="995.00" waitingTime="89.00" waitingCount="1" stopTime="0.00" timeLoss="114.42" rerouteNo="0" devices="tripinfo_lull_SN.16" vType="car" speedFactor="0.99" vaporized=""/>
    <tripinfo id="lull_SN.17" depart="267.00" departLane="edge_S_in_0" departPos="5.00" departSpeed="0.00" departDelay="0.00" arrival="436.00" arrivalLane="edge_N_out_0" arrivalPos="492.80" arrivalSpeed="11.59" duration="169.00" routeLength="995.00" waitingTime="73.00" waitingCount="1" stopTime="0.00" timeLoss="84.72" rerouteNo="0" devices="tripinfo_lull_SN.17" vType="car" speedFactor="0.86" vaporized=""/>
    <tripinfo id="lull_WE.19" depart="348.00" departLane="edge_W_in_0" departPos="5.00" departSpeed="0.00" departDelay="0.00" arrival="440.00" arrivalLane="edge_E_out_0" arrivalPos="492.80" arrivalSpeed="12.20" duration="92.00" routeLength="995.00" waitingTime="1.00" waitingCount="1" stopTime="0.00" timeLoss="14.80" rerouteNo="0" devices="tripinfo_lull_WE.19" vType="car" speedFactor="0.93" vaporized=""/>
    <tripinfo id="lull_WE.20" depart="351.00" departLane="edge_W_in_0" departPos="5.00" departSpeed="0.00" departDelay="2.00" arrival="443.00" arrivalLane="edge_E_out_0" arrivalPos="492.80" arrivalSpeed="12.56" duration="92.00" routeLength="995.00" waitingTime="0.00" waitingCount="0" stopTime="0.00" timeLoss="12.52" rerouteNo="0" devices="tripinfo_lull_WE.20" vType="car" speedFactor="0.91" vaporized=""/>
    <tripinfo id="lull_WE.21" depart="354.00" departLane="edge_W_in_0" departPos="2.10" departSpeed="0.00" departDelay="0.00" arrival="445.00" arrivalLane="edge_E_out_0" arrivalPos="492.80" arrivalSpeed="14.52" duration="91.00" routeLength="997.90" waitingTime="0.00" waitingCount="0" stopTime="0.00" timeLoss="29.06" rerouteNo="0" devices="tripinfo_lull_WE.21" vType="moto" speedFactor="1.18" vaporized=""/>
    <tripinfo id="lull_SN.18" depart="309.00" departLane="edge_S_in_0" departPos="5.00" departSpeed="0.00" departDelay="0.00" arrival="450.00" arrivalLane="edge_N_out_0" arrivalPos="492.80" arrivalSpeed="13.69" duration="141.00" routeLength="995.00" waitingTime="53.00" waitingCount="2" stopTime="0.00" timeLoss="69.66" rerouteNo="0" devices="tripinfo_lull_SN.18" vType="car" speedFactor="1.01" vaporized=""/>
    <tripinfo id="lull_SN.19" depart="315.00" departLane="edge_S_in_0" departPos="5.00" departSpeed="0.00" departDelay="0.00" arrival="452.00" arrivalLane="edge_N_out_0" arrivalPos="492.80" arrivalSpeed="13.55" duration="137.00" routeLength="995.00" waitingTime="46.00" waitingCount="2" stopTime="0.00" timeLoss="65.72" rerouteNo="0" devices="tripinfo_lull_SN.19" vType="car" speedFactor="1.02" vaporized=""/>
    <tripinfo id="lull_SN.20" depart="343.00" departLane="edge_S_in_0" departPos="5.00" departSpeed="0.00" departDelay="0.00" arrival="453.00" arrivalLane="edge_N_out_0" arrivalPos="492.80" arrivalSpeed="14.58" duration="110.00" routeLength="995.00" waitingTime="21.00" waitingCount="2" stopTime="0.00" timeLoss="43.46" rerouteNo="0" devices="tripinfo_lull_SN.20" vType="car" speedFactor="1.10" vaporized=""/>