<?xml version="1.0" encoding="UTF-8"?>

<!-- generated on 2026-03-13T08:51:44.420308+05:30 by Eclipse SUMO sumo 1.25.0
<sumoConfiguration xmlns:xsi="http://www.w3.org/2001/XMLSchema-instance" xsi:noNamespaceSchemaLocation="http://sumo.dlr.de/xsd/sumoConfiguration.xsd">

    <input>
        <net-file value="C:\Users\gathi\projects\FedTraffic-RL\sumo_config\hello.net.xml"/>
        <route-files value="C:\Users\gathi\projects\FedTraffic-RL\sumo_config\hello.rou.xml"/>
        <additional-files value="C:\Users\gathi\projects\FedTraffic-RL\sumo_config\hello.view.xml"/>
    </input>

    <output>
        <tripinfo-output value="C:\Users\gathi\projects\FedTraffic-RL\sumo_config\tripinfo.xml"/>
    </output>

    <time>
        <begin value="0"/>
        <end value="1000"/>
    </time>

    <report>
        <no-warnings value="true"/>
        <log value="C:\Users\gathi\projects\FedTraffic-RL\sumo_config\sumo_debug.log"/>
        <error-log value="C:\Users\gathi\projects\FedTraffic-RL\sumo_config\sumo_debug.log"/>
        <no-step-log value="true"/>
    </report>

    <traci_server>
        <remote-port value="63228"/>
    </traci_server>

    <gui_only>
        <quit-on-end value="true"/>
        <start value="true"/>
    </gui_only>

</sumoConfiguration>
-->

<tripinfos xmlns:xsi="http://www.w3.org/2001/XMLSchema-instance" xsi:noNamespaceSchemaLocation="http://sumo.dlr.de/xsd/tripinfo_file.xsd">
    <tripinfo id="periodic_SN.0" depart="0.00" departLane="edge_S_in_0" departPos="5.00" departSpeed="0.00" departDelay="0.00" arrival="90.00" arrivalLane="edge_N_out_0" arrivalPos="492.80" arrivalSpeed="11.36" duration="90.00" routeLength="995.00" waitingTime="0.00" waitingCount="0" stopTime="0.00" timeLoss="8.34" rerouteNo="0" devices="tripinfo_periodic_SN.0" vType="car" speedFactor="0.89" vaporized=""/>
    <tripinfo id="periodic_SE.0" depart="2.00" departLane="edge_S_in_0" departPos="5.00" departSpeed="0.00" departDelay="2.00" arrival="93.00" arrivalLane="edge_E_out_0" arrivalPos="492.80" arrivalSpeed="11.32" duration="91.00" routeLength="989.63" waitingTime="0.00" waitingCount="0" stopTime="0.00" timeLoss="11.08" rerouteNo="0" devices="tripinfo_periodic_SE.0" vType="car" speedFactor="0.90" vaporized=""/>
    <tripinfo id="periodic_SW.0" depart="5.00" departLane="edge_S_in_0" departPos="5.00" departSpeed="0.00" departDelay="5.00" arrival="96.00" arrivalLane="edge_W_out_0" arrivalPos="492.80" arrivalSpeed="12.53" duration="91.00" routeLength="994.79" waitingTime="0.00" waitingCount="0" stopTime="0.00" timeLoss="12.22" rerouteNo="0" devices="tripinfo_periodic_SW.0" vType="car" speedFactor="0.93" vaporized=""/>
    <tripinfo id="periodic_SN.1" depart="12.00" departLane="edge_S_in_0" departPos="5.00" departSpeed="0.00" departDelay="0.00" arrival="101.00" arrivalLane="edge_N_out_0" arrivalPos="492.80" arrivalSpeed="11.45" duration="89.00" routeLength="995.00" waitingTime="0.00" waitingCount="0" stopTime="0.00" timeLoss="8.07" rerouteNo="0" devices="tripinfo_periodic_SN.1" vType="car" speedFactor="0.89" vaporized=""/>
    <tripinfo id="periodic_SW.1" depart="17.00" departLane="edge_S_in_0" departPos="5.00" departSpeed="0.00" departDelay="5.00" arrival="104.00" arrivalLane="edge_W_out_0" arrivalPos="492.80" arrivalSpeed="13.89" duration="87.00" routeLength="994.79" waitingTime="0.00" waitingCount="0" stopTime="0.00" timeLoss="14.57" rerouteNo="0" devices="tripinfo_periodic_SW.1" vType="car" speedFactor="1.15" vaporized=""/>
    <tripinfo id="periodic_SN.2" depart="24.00" departLane="edge_S_in_0" departPos="5.00" departSpeed="0.00" departDelay="0.00" arrival="106.00" arrivalLane="edge_N_out_0" arrivalPos="492.80" arrivalSpeed="13.01" duration="82.00" routeLength="995.00" waitingTime="0.00" waitingCount="0" stopTime="0.00" timeLoss="9.69" rerouteNo="0" devices="tripinfo_periodic_SN.2" vType="car" speedFactor="1.10" vaporized=""/>
    <tripinfo id="periodic_SE.1" depart="14.00" departLane="edge_S_in_0" departPos="5.00" departSpeed="0.00" departDelay="2.00" arrival="107.00" arrivalLane="edge_E_out_0" arrivalPos="492.80" arrivalSpeed="11.39" duration="93.00" routeLength="989.63" waitingTime="0.00" waitingCount="0" stopTime="0.00" timeLoss="11.93" rerouteNo="0" devices="tripinfo_periodic_SE.1" vType="car" speedFactor="0.89" vaporized=""/>
    <tripinfo id="periodic_SW.2" depart="29.00" departLane="edge_S_in_0" departPos="5.00" departSpeed="0.00" departDelay="5.00" arrival="127.00" arrivalLane="edge_W_out_0" arrivalPos="492.80" arrivalSpeed="11.80" duration="98.00" routeLength="994.79" waitingTime="0.00" waitingCount="0" stopTime="0.00" timeLoss="17.48" rerouteNo="0" devices="tripinfo_periodic_SW.2" vType="car" speedFactor="0.90" vaporized=""/>
    <tripinfo id="periodic_EW.0" depart="0.00" departLane="edge_E_in_0" departPos="5.00" departSpeed="0.00" departDelay="0.00" arrival="129.00" arrivalLane="edge_W_out_0" arrivalPos="492.80" arrivalSpeed="13.64" duration="129.00" routeLength="995.00" waitingTime="43.00" waitingCount="1" stopTime="0.00" timeLoss="56.87" rerouteNo="0" devices="tripinfo_periodic_EW.0" vType="car" speedFactor="1.01" vaporized=""/>
    <tripinfo id="periodic_EN.0" depart="3.00" departLane="edge_E_in_0" departPos="5.00" departSpeed="0.00" departDelay="3.00" arrival="129.00" arrivalLane="edge_N_out_0" arrivalPos="492.80" arrivalSpeed="12.92" duration="126.00" routeLength="989.63" waitingTime="42.00" waitingCount="1" stopTime="0.00" timeLoss="53.51" rerouteNo="0" devices="tripinfo_periodic_EN.0" vType="car" speedFactor="1.04" vaporized=""/>
    <tripinfo id="periodic_SE.2" depart="26.00" departLane="edge_S_in_0" departPos="5.00" departSpeed="0.00" departDelay="2.00" arrival="132.00" arrivalLane="edge_E_out_0" arrivalPos="492.80" arrivalSpeed="10.17" duration="106.00" routeLength="989.63" waitingTime="0.00" waitingCount="0" stopTime="0.00" timeLoss="12.00" rerouteNo="0" devices="tripinfo_periodic_SE.2" vType="car" speedFactor="0.77" vaporized=""/>
    <tripinfo id="periodic_EW.1" depart="12.00" departLane="edge_E_in_0" departPos="5.00" departSpeed="0.00" departDelay="0.00" arrival="133.00" arrivalLane="edge_W_out_0" arrivalPos="492.80" arrivalSpeed="13.46" duration="121.00" routeLength="995.00" waitingTime="35.00" waitingCount="1" stopTime="0.00" timeLoss="48.85" rerouteNo="0" devices="tripinfo_periodic_EW.1" vType="car" speedFactor="1.01" vaporized=""/>
    <tripinfo id="periodic_ES.0" depart="5.00" departLane="edge_E_in_0" departPos="5.00" departSpeed="0.00" departDelay="5.00" arrival="135.00" arrivalLane="edge_S_out_0" arrivalPos="492.80" arrivalSpeed="11.96" duration="130.00" routeLength="994.79" waitingTime="39.00" waitingCount="1" stopTime="0.00" timeLoss="51.85" rerouteNo="0" devices="tripinfo_periodic_ES.0" vType="car" speedFactor="0.94" vaporized=""/>
    <tripinfo id="periodic_WE.0" depart="0.00" departLane="edge_W_in_0" departPos="5.00" departSpeed="0.00" departDelay="0.00" arrival="139.00" arrivalLane="edge_E_out_0" arrivalPos="492.80" arrivalSpeed="13.80" duration="139.00" routeLength="995.00" waitingTime="55.00" waitingCount="1" stopTime="0.00" timeLoss="67.17" rerouteNo="0" devices="tripinfo_periodic_WE.0" vType="car" speedFactor="1.09" vaporized=""/>
    <tripinfo id="periodic_WN.0" depart="3.00" departLane="edge_W_in_0" departPos="5.00" departSpeed="0.00" departDelay="3.00" arrival="142.00" arrivalLane="edge_N_out_0" arrivalPos="492.80" arrivalSpeed="12.52" duration="139.00" routeLength="994.79" waitingTime="54.00" waitingCount="1" stopTime="0.00" timeLoss="66.11" rerouteNo="0" devices="tripinfo_periodic_WN.0" vType="car" speedFactor="1.08" vaporized=""/>
    <tripinfo id="periodic_WS.0" depart="6.00" departLane="edge_W_in_0" departPos="5.00" departSpeed="0.00" departDelay="6.00" arrival="144.00" arrivalLane="edge_S_out_0" arrivalPos="492.80" arrivalSpeed="12.42" duration="138.00" routeLength="989.63" waitingTime="54.00" waitingCount="1" stopTime="0.00" timeLoss="66.11" rerouteNo="0" devices="tripinfo_periodic_WS.0" vType="car" speedFactor="1.01" vaporized=""/>
    <tripinfo id="periodic_WE.1" depart="12.00" departLane="edge_W_in_0" departPos="5.00" departSpeed="0.00" departDelay="0.00" arrival="152.00" arrivalLane="edge_E_out_0" arrivalPos="492.80" arrivalSpeed="11.49" duration="140.00" routeLength="995.00" waitingTime="44.00" waitingCount="1" stopTime="0.00" timeLoss="57.45" rerouteNo="0" devices="tripinfo_periodic_WE.1" vType="car" speedFactor="0.87" vaporized=""/>
    <tripinfo id="periodic_WN.1" depart="14.00" departLane="edge_W_in_0" departPos="5.00" departSpeed="0.00" departDelay="2.00" arrival="152.00" arrivalLane="edge_N_out_0" arrivalPos="492.80" arrivalSpeed="12.78" duration="138.00" routeLength="994.79" waitingTime="43.00" waitingCount="1" stopTime="0.00" timeLoss="63.47" rerouteNo="0" devices="tripinfo_periodic_WN.1" vType="car" speedFactor="0.97" vaporized=""/>
    <tripinfo id="periodic_WS.1" depart="17.00" departLane="edge_W_in_0" departPos="5.00" departSpeed="0.00" departDelay="5.00" arrival="153.00" arrivalLane="edge_S_out_0" arrivalPos="492.80" arrivalSpeed="13.83" duration="136.00" routeLength="989.63" waitingTime="42.00" waitingCount="1" stopTime="0.00" timeLoss="64.01" rerouteNo="0" devices="tripinfo_periodic_WS.1" vType="car" speedFactor="1.02" vaporized=""/>
    <tripinfo id="periodic_WE.2" depart="24.00" departLane="edge_W_in_0" departPos="5.00" departSpeed="0.00" departDelay="0.00" arrival="156.00" arrivalLane="edge_E_out_0" arrivalPos="492.80" arrivalSpeed="13.84" duration="132.00" routeLength="995.00" waitingTime="40.00" waitingCount="1" stopTime="0.00" timeLoss="60.33" rerouteNo="0" devices="tripinfo_periodic_WE.2" vType="car" speedFactor="1.03" vaporized=""/>
    <tripinfo id="periodic_WN.2" depart="27.00" departLane="edge_W_in_0" departPos="5.00" departSpeed="0.00" departDelay="3.00" arrival="159.00" arrivalLane="edge_N_out_0" arrivalPos="492.80" arrivalSpeed="13.32" duration="132.00" routeLength="994.79" waitingTime="40.00" waitingCount="1" stopTime="0.00" timeLoss="59.10" rerouteNo="0" devices="tripinfo_periodic_WN.2" vType="car" speedFactor="1.06" vaporized=""/>
    <tripinfo id="periodic_NW.0" depart="6.00" departLane="edge_N_in_0" departPos="5.00" departSpeed="0.00" departDelay="6.00" arrival="168.00" arrivalLane="edge_W_out_0" arrivalPos="492.80" arrivalSpeed="13.56" duration="162.00" routeLength="989.63" waitingTime="72.00" waitingCount="1" stopTime="0.00" timeLoss="90.04" rerouteNo="0" devices="tripinfo_periodic_NW.0" vType="car" speedFactor="1.12" vaporized=""/>
    <tripinfo id="periodic_NE.0" depart="3.00" departLane="edge_N_in_0" departPos="5.00" departSpeed="0.00" departDelay="3.00" arrival="170.00" arrivalLane="edge_E_out_0" arrivalPos="492.80" arrivalSpeed="11.81" duration="167.00" routeLength="994.79" waitingTime="73.00" waitingCount="1" stopTime="0.00" timeLoss="88.08" rerouteNo="0" devices="tripinfo_periodic_NE.0" vType="car" speedFactor="0.92" vaporized=""/>
    <tripinfo id="periodic_NS.0" depart="0.00" departLane="edge_N_in_0" departPos="5.00" departSpeed="0.00" departDelay="0.00" arrival="172.00" arrivalLane="edge_S_out_0" arrivalPos="492.80" arrivalSpeed="11.02" duration="172.00" routeLength="995.00" waitingTime="74.00" waitingCount="1" stopTime="0.00" timeLoss="86.39" rerouteNo="0" devices="tripinfo_periodic_NS.0" vType="car" speedFactor="0.84" vaporized=""/>
    <tripinfo id="periodic_NS.1" depart="12.00" departLane="edge_N_in_0" departPos="5.00" departSpeed="0.00" departDelay="0.00" arrival="174.00" arrivalLane="edge_S_out_0" arrivalPos="492.80" arrivalSpeed="12.53" duration="162.00" routeLength="995.00" waitingTime="72.00" waitingCount="1" stopTime="0.00" timeLoss="89.54" rerouteNo="0" devices="tripinfo_periodic_NS.1" vType="car" speedFactor="1.03" vaporized=""/>
    <tripinfo id="periodic_NE.1" depart="15.00" departLane="edge_N_in_0" departPos="5.00" departSpeed="0.00" departDelay="3.00" arrival="176.00" arrivalLane="edge_E_out_0" arrivalPos="492.80" arrivalSpeed="12.56" duration="161.00" routeLength="994.79" waitingTime="72.00" waitingCount="1" stopTime="0.00" timeLoss="88.59" rerouteNo="0" devices="tripinfo_periodic_NE.1" vType="car" speedFactor="1.03" vaporized=""/>
    <tripinfo id="periodic_NW.1" depart="18.00" departLane="edge_N_in_0" departPos="5.00" departSpeed="0.00" departDelay="6.00" arrival="179.00" arrivalLane="edge_W_out_0" arrivalPos="492.80" arrivalSpeed="13.31" duration="161.00" routeLength="989.63" waitingTime="69.00" waitingCount="1" stopTime="0.00" timeLoss="88.57" rerouteNo="0" devices="tripinfo_periodic_NW.1" vType="car" speedFactor="1.13" vaporized=""/>
    <tripinfo id="periodic_NS.2" depart="24.00" departLane="edge_N_in_0" departPos="5.00" departSpeed="0.00" departDelay="0.00" arrival="184.00" arrivalLane="edge_S_out_0" arrivalPos="492.80" arrivalSpeed="12.01" duration="160.00" routeLength="995.00" waitingTime="64.00" waitingCount="1" stopTime="0.00" timeLoss="83.33" rerouteNo="0" devices="tripinfo_periodic_NS.2" vType="car" speedFactor="0.94" vaporized=""/>
    <tripinfo id="periodic_NE.2" depart="27.00" departLane="edge_N_in_0" departPos="5.00" departSpeed="0.00" departDelay="3.00" arrival="184.00" arrivalLane="edge_E_out_0" arrivalPos="492.80" arrivalSpeed="12.59" duration="157.00" routeLength="994.79" waitingTime="63.00" waitingCount="1" stopTime="0.00" timeLoss="84.62" rerouteNo="0" devices="tripinfo_periodic_NE.2" vType="car" speedFactor="1.07" vaporized=""/>
    <tripinfo id="periodic_EN.1" depart="14.00" departLane="edge_E_in_0" departPos="5.00" departSpeed="0.00" departDelay="2.00" arrival="189.00" arrivalLane="edge_N_out_0" arrivalPos="492.80" arrivalSpeed="12.56" duration="175.00" routeLength="989.63" waitingTime="83.00" waitingCount="2" stopTime="0.00" timeLoss="102.80" rerouteNo="0" devices="tripinfo_periodic_EN.1" vType="car" speedFactor="1.12" vaporized=""/>
    <tripinfo id="periodic_ES.1" depart="17.00" departLane="edge_E_in_0" departPos="5.00" departSpeed="0.00" departDelay="5.00" arrival="192.00" arrivalLane="edge_S_out_0" arrivalPos="492.80" arrivalSpeed="12.74" duration="175.00" routeLength="994.79" waitingTime="82.00" waitingCount="2" stopTime="0.00" timeLoss="101.81" rerouteNo="0" devices="tripinfo_periodic_ES.1" vType="car" speedFactor="0.99" vaporized=""/>
    <tripinfo id="periodic_EN.2" depart="26.00" departLane="edge_E_in_0" departPos="5.00" departSpeed="0.00" departDelay="2.00" arrival="197.00" arrivalLane="edge_N_out_0" arrivalPos="492.80" arrivalSpeed="13.52" duration="171.00" routeLength="989.63" waitingTime="69.00" waitingCount="2" stopTime="0.00" timeLoss="98.48" rerouteNo="0" devices="tripinfo_periodic_EN.2" vType="car" speedFactor="1.02" vaporized=""/>
    <tripinfo id="periodic_EW.2" depart="24.00" departLane="edge_E_in_0" departPos="5.00" departSpeed="0.00" departDelay="0.00" arrival="201.00" arrivalLane="edge_W_out_0" arrivalPos="492.80" arrivalSpeed="11.25" duration="177.00" routeLength="995.00" waitingTime="71.00" waitingCount="2" stopTime="0.00" timeLoss="90.58" rerouteNo="0" devices="tripinfo_periodic_EW.2" vType="car" speedFactor="0.83" vaporized=""/>
    <tripinfo id="periodic_EW.3" depart="36.00" departLane="edge_E_in_0" departPos="5.00" departSpeed="0.00" departDelay="0.00" arrival="203.00" arrivalLane="edge_W_out_0" arrivalPos="492.80" arrivalSpeed="13.04" duration="167.00" routeLength="995.00" waitingTime="66.00" waitingCount="2" stopTime="0.00" timeLoss="95.32" rerouteNo="0" devices="tripinfo_periodic_EW.3" vType="car" speedFactor="1.10" vaporized=""/>
    <tripinfo id="periodic_EN.3" depart="39.00" departLane="edge_E_in_0" departPos="5.00" departSpeed="0.00" departDelay="3.00" arrival="207.00" arrivalLane="edge_N_out_0" arrivalPos="492.80" arrivalSpeed="12.80" duration="168.00" routeLength="989.63" waitingTime="63.00" waitingCount="2" stopTime="0.00" timeLoss="94.93" rerouteNo="0" devices="tripinfo_periodic_EN.3" vType="car" speedFactor="1.00" vaporized=""/>
    <tripinfo id="periodic_ES.2" depart="29.00" departLane="edge_E_in_0" departPos="5.00" departSpeed="0.00" departDelay="5.00" arrival="208.00" arrivalLane="edge_S_out_0" arrivalPos="492.80" arrivalSpeed="12.14" duration="179.00" routeLength="994.79" waitingTime="66.00" waitingCount="2" stopTime="0.00" timeLoss="95.67" rerouteNo="0" devices="tripinfo_periodic_ES.2" vType="car" speedFactor="0.88" vaporized=""/>
    <tripinfo id="periodic_ES.3" depart="41.00" departLane="edge_E_in_0" departPos="5.00" departSpeed="0.00" departDelay="5.00" arrival="210.00" arrivalLane="edge_S_out_0" arrivalPos="492.80" arrivalSpeed="12.96" duration="169.00" routeLength="994.79" waitingTime="61.00" waitingCount="2" stopTime="0.00" timeLoss="94.93" rerouteNo="0" devices="tripinfo_periodic_ES.3" vType="car" speedFactor="0.99" vaporized=""/>
    <tripinfo id="periodic_EW.4" depart="48.00" departLane="edge_E_in_0" departPos="5.00" departSpeed="0.00" departDelay="0.00" arrival="216.00" arrivalLane="edge_W_out_0" arrivalPos="492.80" arrivalSpeed="11.67" duration="168.00" routeLength="995.00" waitingTime="56.00" waitingCount="2" stopTime="0.00" timeLoss="90.62" rerouteNo="0" devices="tripinfo_periodic_EW.4" vType="car" speedFactor="0.93" vaporized=""/>
    <tripinfo id="periodic_ES.4" depart="53.00" departLane="edge_E_in_0" departPos="5.00" departSpeed="0.00" departDelay="5.00" arrival="219.00" arrivalLane="edge_S_out_0" arrivalPos="492.80" arrivalSpeed="13.72" duration="166.00" routeLength="994.79" waitingTime="52.00" waitingCount="3" stopTime="0.00" timeLoss="93.28" rerouteNo="0" devices="tripinfo_periodic_ES.4" vType="car" speedFactor="1.02" vaporized=""/>
    <tripinfo id="periodic_EN.4" depart="50.00" departLane="edge_E_in_0" departPos="5.00" departSpeed="0.00" departDelay="2.00" arrival="221.00" arrivalLane="edge_N_out_0" arrivalPos="492.80" arrivalSpeed="11.97" duration="171.00" routeLength="989.63" waitingTime="53.00" waitingCount="3" stopTime="0.00" timeLoss="90.01" rerouteNo="0" devices="tripinfo_periodic_EN.4" vType="car" speedFactor="0.90" vaporized=""/>
    <tripinfo id="periodic_EW.5" depart="60.00" departLane="edge_E_in_0" departPos="5.00" departSpeed="0.00" departDelay="0.00" arrival="223.00" arrivalLane="edge_W_out_0" arrivalPos="492.80" arrivalSpeed="12.93" duration="163.00" routeLength="995.00" waitingTime="46.00" waitingCount="2" stopTime="0.00" timeLoss="86.89" rerouteNo="0" devices="tripinfo_periodic_EW.5" vType="car" speedFactor="0.94" vaporized=""/>
    <tripinfo id="periodic_EN.5" depart="63.00" departLane="edge_E_in_0" departPos="5.00" departSpeed="0.00" departDelay="3.00" arrival="225.00" arrivalLane="edge_N_out_0" arrivalPos="492.80" arrivalSpeed="13.74" duration="162.00" routeLength="989.63" waitingTime="45.00" waitingCount="2" stopTime="0.00" timeLoss="89.27" rerouteNo="0" devices="tripinfo_periodic_EN.5" vType="car" speedFactor="1.14" vaporized=""/>
    <tripinfo id="periodic_ES.5" depart="66.00" departLane="edge_E_in_0" departPos="5.00" departSpeed="0.00" departDelay="6.00" arrival="228.00" arrivalLane="edge_S_out_0" arrivalPos="492.80" arrivalSpeed="13.44" duration="162.00" routeLength="994.79" waitingTime="46.00" waitingCount="2" stopTime="0.00" timeLoss="89.33" rerouteNo="0" devices="tripinfo_periodic_ES.5" vType="car" speedFactor="1.10" vaporized=""/>
    <tripinfo id="periodic_EW.6" depart="72.00" departLane="edge_E_in_0" departPos="5.00" departSpeed="0.00" departDelay="0.00" arrival="230.00" arrivalLane="edge_W_out_0" arrivalPos="492.80" arrivalSpeed="13.61" duration="158.00" routeLength="995.00" waitingTime="43.00" waitingCount="2" stopTime="0.00" timeLoss="86.30" rerouteNo="0" devices="tripinfo_periodic_EW.6" vType="car" speedFactor="1.08" vaporized=""/>
    <tripinfo id="periodic_EN.6" depart="75.00" departLane="edge_E_in_0" departPos="5.00" departSpeed="0.00" departDelay="3.00" arrival="234.00" arrivalLane="edge_N_out_0" arrivalPos="492.80" arrivalSpeed="13.16" duration="159.00" routeLength="989.63" waitingTime="41.00" waitingCount="1" stopTime="0.00" timeLoss="85.95" rerouteNo="0" devices="tripinfo_periodic_EN.6" vType="car" speedFactor="1.02" vaporized=""/>
    <tripinfo id="periodic_ES.6" depart="78.00" departLane="edge_E_in_0" departPos="5.00" departSpeed="0.00" departDelay="6.00" arrival="237.00" arrivalLane="edge_S_out_0" arrivalPos="492.80" arrivalSpeed="13.42" duration="159.00" routeLength="994.79" waitingTime="39.00" waitingCount="1" stopTime="0.00" timeLoss="86.47" rerouteNo="0" devices="tripinfo_periodic_ES.6" vType="car" speedFactor="1.10" vaporized=""/>
    <tripinfo id="periodic_EW.7" depart="84.00" departLane="edge_E_in_0" departPos="5.00" departSpeed="0.00" departDelay="0.00" arrival="240.00" arrivalLane="edge_W_out_0" arrivalPos="492.80" arrivalSpeed="12.55" duration="156.00" routeLength="995.00" waitingTime="40.00" waitingCount="1" stopTime="0.00" timeLoss="82.17" rerouteNo="0" devices="tripinfo_periodic_EW.7" vType="car" speedFactor="0.98" vaporized=""/>
    <tripinfo id="periodic_EN.7" depart="86.00" departLane="edge_E_in_0" departPos="5.00" departSpeed="0.00" departDelay="2.00" arrival="242.00" arrivalLane="edge_N_out_0" arrivalPos="492.80" arrivalSpeed="12.94" duration="156.00" routeLength="989.63" waitingTime="40.00" waitingCount="1" stopTime="0.00" timeLoss="83.61" rerouteNo="0" devices="tripinfo_periodic_EN.7" vType="car" speedFactor="1.00" vaporized=""/>
    <tripinfo id="periodic_ES.7" depart="89.00" departLane="edge_E_in_0" departPos="5.00" departSpeed="0.00" departDelay="5.00" arrival="244.00" arrivalLane="edge_S_out_0" arrivalPos="492.80" arrivalSpeed="12.49" duration="155.00" routeLength="994.79" waitingTime="40.00" waitingCount="1" stopTime="0.00" timeLoss="82.92" rerouteNo="0" devices="tripinfo_periodic_ES.7" vType="car" speedFactor="1.12" vaporized=""/>
    <tripinfo id="periodic_EW.8" depart="96.00" departLane="edge_E_in_0" departPos="5.00" departSpeed="0.00" departDelay="0.00" arrival="250.00" arrivalLane="edge_W_out_0" arrivalPos="492.80" arrivalSpeed="12.58" duration="154.00" routeLength="995.00" waitingTime="39.00" waitingCount="1" stopTime="0.00" timeLoss="81.74" rerouteNo="0" devices="tripinfo_periodic_EW.8" vType="car" speedFactor="1.04" vaporized=""/>
    <tripinfo id="periodic_EN.8" depart="99.00" departLane="edge_E_in_0" departPos="5.00" departSpeed="0.00" departDelay="3.00" arrival="252.00" arrivalLane="edge_N_out_0" arrivalPos="492.80" arrivalSpeed="12.96" duration="153.00" routeLength="989.63" waitingTime="40.00" waitingCount="1" stopTime="0.00" timeLoss="80.59" rerouteNo="0" devices="tripinfo_periodic_EN.8" vType="car" speedFactor="1.01" vaporized=""/>
    <tripinfo id="periodic_ES.8" depart="102.00" departLane="edge_E_in_0" departPos="5.00" departSpeed="0.00" departDelay="6.00" arrival="254.00" arrivalLane="edge_S_out_0" arrivalPos="492.80" arrivalSpeed="13.01" duration="152.00" routeLength="994.79" waitingTime="39.00" waitingCount="1" stopTime="0.00" timeLoss="79.75" rerouteNo="0" devices="tripinfo_periodic_ES.8" vType="car" speedFactor="1.13" vaporized=""/>
    <tripinfo id="periodic_EW.9" depart="108.00" departLane="edge_E_in_0" departPos="5.00" departSpeed="0.00" departDelay="0.00" arrival="258.00" arrivalLane="edge_W_out_0" arrivalPos="492.80" arrivalSpeed="12.45" duration="150.00" routeLength="995.00" waitingTime="36.00" waitingCount="1" stopTime="0.00" timeLoss="73.64" rerouteNo="0" devices="tripinfo_periodic_EW.9" vType="car" speedFactor="0.94" vaporized=""/>
    <tripinfo id="periodic_EN.9" depart="111.00" departLane="edge_E_in_0" departPos="5.00" departSpeed="0.00" departDelay="3.00" arrival="261.00" arrivalLane="edge_N_out_0" arrivalPos="492.80" arrivalSpeed="13.25" duration="150.00" routeLength="989.63" waitingTime="34.00" waitingCount="1" stopTime="0.00" timeLoss="77.56" rerouteNo="0" devices="tripinfo_periodic_EN.9" vType="car" speedFactor="1.00" vaporized=""/>
    <tripinfo id="periodic_EW.10" depart="120.00" departLane="edge_E_in_0" departPos="5.00" departSpeed="0.00" departDelay="0.00" arrival="267.00" arrivalLane="edge_W_out_0" arrivalPos="492.80" arrivalSpeed="13.45" duration="147.00" routeLength="995.00" waitingTime="29.00" waitingCount="1" stopTime="0.00" timeLoss="74.42" rerouteNo="0" devices="tripinfo_periodic_EW.10" vType="car" speedFactor="1.13" vaporized=""/>
    <tripinfo id="periodic_EN.10" depart="123.00" departLane="edge_E_in_0" departPos="5.00" departSpeed="0.00" departDelay="3.00" arrival="269.00" arrivalLane="edge_N_out_0" arrivalPos="492.80" arrivalSpeed="13.86" duration="146.00" routeLength="989.63" waitingTime="27.00" waitingCount="1" stopTime="0.00" timeLoss="73.56" rerouteNo="0" devices="tripinfo_periodic_EN.10" vType="car" speedFactor="1.02" vaporized=""/>
    <tripinfo id="periodic_ES.9" depart="113.00" departLane="edge_E_in_0" departPos="5.00" departSpeed="0.00" departDelay="5.00" arrival="270.00" arrivalLane="edge_S_out_0" arrivalPos="492.80" arrivalSpeed="10.96" duration="157.00" routeLength="994.79" waitingTime="31.00" waitingCount="1" stopTime="0.00" timeLoss="73.99" rerouteNo="0" devices="tripinfo_periodic_ES.9" vType="car" speedFactor="0.88" vaporized=""/>
    <tripinfo id="periodic_ES.10" depart="126.00" departLane="edge_E_in_0" departPos="5.00" departSpeed="0.00" departDelay="6.00" arrival="274.00" arrivalLane="edge_S_out_0" arrivalPos="492.80" arrivalSpeed="13.05" duration="148.00" routeLength="994.79" waitingTime="26.00" waitingCount="1" stopTime="0.00" timeLoss="75.09" rerouteNo="0" devices="tripinfo_periodic_ES.10" vType="car" speedFactor="1.09" vaporized=""/>
    <tripinfo id="periodic_EW.11" depart="132.00" departLane="edge_E_in_0" departPos="5.00" departSpeed="0.00" departDelay="0.00" arrival="278.00" arrivalLane="edge_W_out_0" arrivalPos="492.80" arrivalSpeed="11.49" duration="146.00" routeLength="995.00" waitingTime="20.00" waitingCount="1" stopTime="0.00" timeLoss="68.44" rerouteNo="0" devices="tripinfo_periodic_EW.11" vType="car" speedFactor="0.93" vaporized=""/>
    <tripinfo id="periodic_EN.11" depart="135.00" departLane="edge_E_in_0" departPos="5.00" departSpeed="0.00" departDelay="3.00" arrival="279.00" arrivalLane="edge_N_out_0" arrivalPos="492.80" arrivalSpeed="13.54" duration="144.00" routeLength="989.63" waitingTime="21.00" waitingCount="1" stopTime="0.00" timeLoss="70.96" rerouteNo="0" devices="tripinfo_periodic_EN.11" vType="car" speedFactor="1.07" vaporized=""/>
    <tripinfo id="periodic_ES.11" depart="139.00" departLane="edge_E_in_0" departPos="5.00" departSpeed="0.00" departDelay="7.00" arrival="280.00" arrivalLane="edge_S_out_0" arrivalPos="492.80" arrivalSpeed="13.29" duration="141.00" routeLength="994.79" waitingTime="19.00" waitingCount="1" stopTime="0.00" timeLoss="68.68" rerouteNo="0" devices="tripinfo_periodic_ES.11" vType="car" speedFactor="1.10" vaporized=""/>
    <tripinfo id="periodic_EW.12" depart="144.00" departLane="edge_E_in_0" departPos="5.00" departSpeed="0.00" departDelay="0.00" arrival="285.00" arrivalLane="edge_W_out_0" arrivalPos="492.80" arrivalSpeed="12.63" duration="141.00" routeLength="995.00" waitingTime="17.00" waitingCount="1" stopTime="0.00" timeLoss="69.31" rerouteNo="0" devices="tripinfo_periodic_EW.12" vType="car" speedFactor="1.04" vaporized=""/>
    <tripinfo id="periodic_EN.12" depart="147.00" departLane="edge_E_in_0" departPos="5.00" departSpeed="0.00" departDelay="3.00" arrival="287.00" arrivalLane="edge_N_out_0" arrivalPos="492.80" arrivalSpeed="13.00" duration="140.00" routeLength="989.63" waitingTime="15.00" waitingCount="1" stopTime="0.00" timeLoss="68.28" rerouteNo="0" devices="tripinfo_periodic_EN.12" vType="car" speedFactor="1.14" vaporized=""/>
    <tripinfo id="periodic_ES.12" depart="149.00" departLane="edge_E_in_0" departPos="5.00" departSpeed="0.00" departDelay="5.00" arrival="291.00" arrivalLane="edge_S_out_0" arrivalPos="492.80" arrivalSpeed="12.85" duration="142.00" routeLength="994.79" waitingTime="13.00" waitingCount="1" stopTime="0.00" timeLoss="66.30" rerouteNo="0" devices="tripinfo_periodic_ES.12" vType="car" speedFactor="0.96" vaporized=""/>
    <tripinfo id="periodic_EW.13" depart="156.00" departLane="edge_E_in_0" departPos="5.00" departSpeed="0.00" departDelay="0.00" arrival="293.00" arrivalLane="edge_W_out_0" arrivalPos="492.80" arrivalSpeed="13.25" duration="137.00" routeLength="995.00" waitingTime="9.00" waitingCount="1" stopTime="0.00" timeLoss="62.19" rerouteNo="0" devices="tripinfo_periodic_EW.13" vType="car" speedFactor="0.96" vaporized=""/>
    <tripinfo id="periodic_EN.13" depart="158.00" departLane="edge_E_in_0" departPos="5.00" departSpeed="0.00" departDelay="2.00" arrival="300.00" arrivalLane="edge_N_out_0" arrivalPos="492.80" arrivalSpeed="12.79" duration="142.00" routeLength="989.63" waitingTime="7.00" waitingCount="1" stopTime="0.00" timeLoss="63.95" rerouteNo="0" devices="tripinfo_periodic_EN.13" vType="car" speedFactor="0.92" vaporized=""/>
    <tripinfo id="periodic_ES.13" depart="161.00" departLane="edge_E_in_0" departPos="5.00" departSpeed="0.00" departDelay="5.00" arrival="300.00" arrivalLane="edge_S_out_0" arrivalPos="492.80" arrivalSpeed="13.70" duration="139.00" routeLength="994.79" waitingTime="7.00" waitingCount="1" stopTime="0.00" timeLoss="65.96" rerouteNo="0" devices="tripinfo_periodic_ES.13" vType="car" speedFactor="1.06" vaporized=""/>
    <tripinfo id="periodic_EW.14" depart="170.00" departLane="edge_E_in_0" departPos="5.00" departSpeed="0.00" departDelay="2.00" arrival="303.00" arrivalLane="edge_W_out_0" arrivalPos="492.80" arrivalSpeed="12.93" duration="133.00" routeLength="995.00" waitingTime="0.00" waitingCount="0" stopTime="0.00" timeLoss="58.70" rerouteNo="0" devices="tripinfo_periodic_EW.14" vType="car" speedFactor="0.97" vaporized=""/>