<?xml version="1.0" encoding="UTF-8"?>

<!-- generated on 2026-02-20T10:15:15.554307+05:30 by Eclipse SUMO sumo 1.25.0
<sumoConfiguration xmlns:xsi="http://www.w3.org/2001/XMLSchema-instance" xsi:noNamespaceSchemaLocation="http://sumo.dlr.de/xsd/sumoConfiguration.xsd">

    <input>
        <net-file value="C:\Users\gathi\projects\FedTraffic-RL\sumo_config\hello.net.xml"/>
        <route-files value="C:\Users\gathi\projects\FedTraffic-RL\sumo_config\hello.rou.xml"/>
        <additional-files value="C:\Users\gathi\projects\FedTraffic-RL\sumo_config\hello.view.xml"/>
    </input>

    <output>
        <tripinfo-output value="C:\Users\gathi\projects\FedTraffic-RL\sumo_config\tripinfo.xml"/>
    </output>

    <time>
        <begin value="0"/>
        <end value="1000"/>
    </time>

    <report>
        <no-warnings value="true"/>
        <log value="C:\Users\gathi\projects\FedTraffic-RL\sumo_config\sumo_debug.log"/>
        <error-log value="C:\Users\gathi\projects\FedTraffic-RL\sumo_config\sumo_debug.log"/>
        <no-step-log value="true"/>
    </report>

    <traci_server>
        <remote-port value="54907"/>
    </traci_server>

    <gui_only>
        <quit-on-end value="true"/>
        <start value="true"/>
    </gui_only>

</sumoConfiguration>
-->

<tripinfos xmlns:xsi="http://www.w3.org/2001/XMLSchema-instance" xsi:noNamespaceSchemaLocation="http://sumo.dlr.de/xsd/tripinfo_file.xsd">
    <tripinfo id="f_WE.0" depart="4.00" departLane="edge_W_in_0" departPos="5.00" departSpeed="0.00" departDelay="0.00" arrival="83.00" arrivalLane="edge_E_out_0" arrivalPos="492.80" arrivalSpeed="13.72" duration="79.00" routeLength="995.00" waitingTime="0.00" waitingCount="0" stopTime="0.00" timeLoss="7.75" rerouteNo="0" devices="tripinfo_f_WE.0" vType="car" speedFactor="1.01" vaporized=""/>
    <tripinfo id="f_SN.0" depart="15.00" departLane="edge_S_in_0" departPos="5.00" departSpeed="0.00" departDelay="0.00" arrival="92.00" arrivalLane="edge_N_out_0" arrivalPos="492.80" arrivalSpeed="14.10" duration="77.00" routeLength="995.00" waitingTime="0.00" waitingCount="0" stopTime="0.00" timeLoss="7.80" rerouteNo="0" devices="tripinfo_f_SN.0" vType="car" speedFactor="1.04" vaporized=""/>
    <tripinfo id="f_EW.0" depart="1.00" departLane="edge_E_in_0" departPos="5.00" departSpeed="0.00" departDelay="0.00" arrival="104.00" arrivalLane="edge_W_out_0" arrivalPos="492.80" arrivalSpeed="13.88" duration="103.00" routeLength="995.00" waitingTime="24.00" waitingCount="1" stopTime="0.00" timeLoss="35.87" rerouteNo="0" devices="tripinfo_f_EW.0" vType="car" speedFactor="1.16" vaporized=""/>
    <tripinfo id="f_EW.1" depart="31.00" departLane="edge_E_in_0" departPos="5.00" departSpeed="0.00" departDelay="0.00" arrival="106.00" arrivalLane="edge_W_out_0" arrivalPos="492.80" arrivalSpeed="14.47" duration="75.00" routeLength="995.00" waitingTime="0.00" waitingCount="0" stopTime="0.00" timeLoss="7.85" rerouteNo="0" devices="tripinfo_f_EW.1" vType="car" speedFactor="1.08" vaporized=""/>
    <tripinfo id="f_WE.1" depart="25.00" departLane="edge_W_in_0" departPos="5.00" departSpeed="0.00" departDelay="0.00" arrival="120.00" arrivalLane="edge_E_out_0" arrivalPos="492.80" arrivalSpeed="12.79" duration="95.00" routeLength="995.00" waitingTime="9.00" waitingCount="1" stopTime="0.00" timeLoss="21.64" rerouteNo="0" devices="tripinfo_f_WE.1" vType="car" speedFactor="0.98" vaporized=""/>
    <tripinfo id="f_WS.0" depart="38.00" departLane="edge_W_in_0" departPos="5.00" departSpeed="0.00" departDelay="0.00" arrival="121.00" arrivalLane="edge_S_out_0" arrivalPos="492.80" arrivalSpeed="13.89" duration="83.00" routeLength="989.63" waitingTime="0.00" waitingCount="0" stopTime="0.00" timeLoss="11.16" rerouteNo="0" devices="tripinfo_f_WS.0" vType="car" speedFactor="1.00" vaporized=""/>
    <tripinfo id="f_SN.1" depart="19.00" departLane="edge_S_in_0" departPos="5.00" departSpeed="0.00" departDelay="0.00" arrival="136.00" arrivalLane="edge_N_out_0" arrivalPos="492.80" arrivalSpeed="11.74" duration="117.00" routeLength="995.00" waitingTime="25.00" waitingCount="1" stopTime="0.00" timeLoss="36.87" rerouteNo="0" devices="tripinfo_f_SN.1" vType="car" speedFactor="0.90" vaporized=""/>
    <tripinfo id="f_NS.0" depart="30.00" departLane="edge_N_in_0" departPos="5.00" departSpeed="0.00" departDelay="0.00" arrival="149.00" arrivalLane="edge_S_out_0" arrivalPos="492.80" arrivalSpeed="11.42" duration="119.00" routeLength="995.00" waitingTime="25.00" waitingCount="1" stopTime="0.00" timeLoss="37.78" rerouteNo="0" devices="tripinfo_f_NS.0" vType="car" speedFactor="0.88" vaporized=""/>
    <tripinfo id="f_SN.2" depart="26.00" departLane="edge_S_in_0" departPos="12.10" departSpeed="0.00" departDelay="0.00" arrival="150.00" arrivalLane="edge_N_out_0" arrivalPos="492.80" arrivalSpeed="9.82" duration="124.00" routeLength="987.90" waitingTime="9.00" waitingCount="1" stopTime="0.00" timeLoss="24.88" rerouteNo="0" devices="tripinfo_f_SN.2" vType="bus" speedFactor="0.99" vaporized=""/>
    <tripinfo id="f_NS.1" depart="35.00" departLane="edge_N_in_0" departPos="2.10" departSpeed="0.00" departDelay="0.00" arrival="151.00" arrivalLane="edge_S_out_0" arrivalPos="492.80" arrivalSpeed="13.86" duration="116.00" routeLength="997.90" waitingTime="25.00" waitingCount="1" stopTime="0.00" timeLoss="45.53" rerouteNo="0" devices="tripinfo_f_NS.1" vType="moto" speedFactor="1.03" vaporized=""/>
    <tripinfo id="f_NS.2" depart="71.00" departLane="edge_N_in_0" departPos="2.10" departSpeed="0.00" departDelay="0.00" arrival="153.00" arrivalLane="edge_S_out_0" arrivalPos="492.80" arrivalSpeed="13.18" duration="82.00" routeLength="997.90" waitingTime="0.00" waitingCount="0" stopTime="0.00" timeLoss="8.47" rerouteNo="0" devices="tripinfo_f_NS.2" vType="moto" speedFactor="0.99" vaporized=""/>
    <tripinfo id="f_SN.3" depart="45.00" departLane="edge_S_in_0" departPos="12.10" departSpeed="0.00" departDelay="0.00" arrival="174.00" arrivalLane="edge_N_out_0" arrivalPos="492.80" arrivalSpeed="9.91" duration="129.00" routeLength="987.90" waitingTime="15.00" waitingCount="1" stopTime="0.00" timeLoss="30.02" rerouteNo="0" devices="tripinfo_f_SN.3" vType="bus" speedFactor="0.84" vaporized=""/>
    <tripinfo id="f_SN.4" depart="49.00" departLane="edge_S_in_0" departPos="5.00" departSpeed="0.00" departDelay="3.00" arrival="176.00" arrivalLane="edge_N_out_0" arrivalPos="492.80" arrivalSpeed="13.03" duration="127.00" routeLength="995.00" waitingTime="13.00" waitingCount="1" stopTime="0.00" timeLoss="58.24" rerouteNo="0" devices="tripinfo_f_SN.4" vType="car" speedFactor="1.04" vaporized=""/>
    <tripinfo id="f_EW.2" depart="34.00" departLane="edge_E_in_0" departPos="5.00" departSpeed="0.00" departDelay="0.00" arrival="177.00" arrivalLane="edge_W_out_0" arrivalPos="492.80" arrivalSpeed="11.13" duration="143.00" routeLength="995.00" waitingTime="47.00" waitingCount="1" stopTime="0.00" timeLoss="59.59" rerouteNo="0" devices="tripinfo_f_EW.2" vType="car" speedFactor="0.86" vaporized=""/>
    <tripinfo id="f_SN.5" depart="59.00" departLane="edge_S_in_0" departPos="2.10" departSpeed="0.00" departDelay="0.00" arrival="178.00" arrivalLane="edge_N_out_0" arrivalPos="492.80" arrivalSpeed="15.25" duration="119.00" routeLength="997.90" waitingTime="12.00" waitingCount="1" stopTime="0.00" timeLoss="53.70" rerouteNo="0" devices="tripinfo_f_SN.5" vType="moto" speedFactor="1.11" vaporized=""/>
    <tripinfo id="f_EN.0" depart="99.00" departLane="edge_E_in_0" departPos="5.00" departSpeed="0.00" departDelay="0.00" arrival="179.00" arrivalLane="edge_N_out_0" arrivalPos="492.80" arrivalSpeed="14.29" duration="80.00" routeLength="989.63" waitingTime="0.00" waitingCount="0" stopTime="0.00" timeLoss="13.45" rerouteNo="0" devices="tripinfo_f_EN.0" vType="car" speedFactor="1.09" vaporized=""/>
    <tripinfo id="f_SN.6" depart="62.00" departLane="edge_S_in_0" departPos="5.00" departSpeed="0.00" departDelay="2.00" arrival="184.00" arrivalLane="edge_N_out_0" arrivalPos="492.80" arrivalSpeed="13.51" duration="122.00" routeLength="995.00" waitingTime="25.00" waitingCount="2" stopTime="0.00" timeLoss="49.41" rerouteNo="0" devices="tripinfo_f_SN.6" vType="car" speedFactor="0.99" vaporized=""/>
    <tripinfo id="f_SN.7" depart="74.00" departLane="edge_S_in_0" departPos="5.00" departSpeed="0.00" departDelay="0.00" arrival="187.00" arrivalLane="edge_N_out_0" arrivalPos="492.80" arrivalSpeed="13.10" duration="113.00" routeLength="995.00" waitingTime="16.00" waitingCount="2" stopTime="0.00" timeLoss="39.01" rerouteNo="0" devices="tripinfo_f_SN.7" vType="car" speedFactor="0.97" vaporized=""/>
    <tripinfo id="f_SN.8" depart="92.00" departLane="edge_S_in_0" departPos="5.00" departSpeed="0.00" departDelay="0.00" arrival="189.00" arrivalLane="edge_N_out_0" arrivalPos="492.80" arrivalSpeed="13.59" duration="97.00" routeLength="995.00" waitingTime="10.00" waitingCount="1" stopTime="0.00" timeLoss="24.53" rerouteNo="0" devices="tripinfo_f_SN.8" vType="car" speedFactor="0.99" vaporized=""/>
    <tripinfo id="f_SE.0" depart="103.00" departLane="edge_S_in_0" departPos="5.00" departSpeed="0.00" departDelay="0.00" arrival="189.00" arrivalLane="edge_E_out_0" arrivalPos="492.80" arrivalSpeed="14.59" duration="86.00" routeLength="989.63" waitingTime="3.00" waitingCount="1" stopTime="0.00" timeLoss="18.93" rerouteNo="0" devices="tripinfo_f_SE.0" vType="car" speedFactor="1.08" vaporized=""/>
    <tripinfo id="f_WE.2" depart="75.00" departLane="edge_W_in_0" departPos="5.00" departSpeed="0.00" departDelay="0.00" arrival="205.00" arrivalLane="edge_E_out_0" arrivalPos="492.80" arrivalSpeed="11.38" duration="130.00" routeLength="995.00" waitingTime="31.00" waitingCount="1" stopTime="0.00" timeLoss="43.06" rerouteNo="0" devices="tripinfo_f_WE.2" vType="car" speedFactor="0.83" vaporized=""/>
    <tripinfo id="f_NW.0" depart="102.00" departLane="edge_N_in_0" departPos="5.00" departSpeed="0.00" departDelay="0.00" arrival="206.00" arrivalLane="edge_W_out_0" arrivalPos="492.80" arrivalSpeed="14.50" duration="104.00" routeLength="989.63" waitingTime="26.00" waitingCount="1" stopTime="0.00" timeLoss="37.41" rerouteNo="0" devices="tripinfo_f_NW.0" vType="car" speedFactor="1.11" vaporized=""/>
    <tripinfo id="f_NW.1" depart="105.00" departLane="edge_N_in_0" departPos="5.00" departSpeed="0.00" departDelay="1.00" arrival="214.00" arrivalLane="edge_W_out_0" arrivalPos="492.80" arrivalSpeed="12.85" duration="109.00" routeLength="989.63" waitingTime="21.00" waitingCount="1" stopTime="0.00" timeLoss="32.88" rerouteNo="0" devices="tripinfo_f_NW.1" vType="car" speedFactor="0.95" vaporized=""/>
    <tripinfo id="f_NS.3" depart="130.00" departLane="edge_N_in_0" departPos="5.00" departSpeed="0.00" departDelay="0.00" arrival="214.00" arrivalLane="edge_S_out_0" arrivalPos="492.80" arrivalSpeed="13.70" duration="84.00" routeLength="995.00" waitingTime="0.00" waitingCount="0" stopTime="0.00" timeLoss="11.66" rerouteNo="0" devices="tripinfo_f_NS.3" vType="car" speedFactor="0.99" vaporized=""/>
    <tripinfo id="f_NS.4" depart="136.00" departLane="edge_N_in_0" departPos="5.00" departSpeed="0.00" departDelay="2.00" arrival="217.00" arrivalLane="edge_S_out_0" arrivalPos="492.80" arrivalSpeed="13.13" duration="81.00" routeLength="995.00" waitingTime="0.00" waitingCount="0" stopTime="0.00" timeLoss="8.89" rerouteNo="0" devices="tripinfo_f_NS.4" vType="car" speedFactor="1.00" vaporized=""/>
    <tripinfo id="f_EW.3" depart="102.00" departLane="edge_E_in_0" departPos="5.00" departSpeed="0.00" departDelay="2.00" arrival="229.00" arrivalLane="edge_W_out_0" arrivalPos="492.80" arrivalSpeed="11.09" duration="127.00" routeLength="995.00" waitingTime="32.00" waitingCount="1" stopTime="0.00" timeLoss="42.78" rerouteNo="0" devices="tripinfo_f_EW.3" vType="car" speedFactor="0.85" vaporized=""/>
    <tripinfo id="f_EW.4" depart="116.00" departLane="edge_E_in_0" departPos="5.00" departSpeed="0.00" departDelay="0.00" arrival="231.00" arrivalLane="edge_W_out_0" arrivalPos="492.80" arrivalSpeed="12.09" duration="115.00" routeLength="995.00" waitingTime="22.00" waitingCount="1" stopTime="0.00" timeLoss="34.74" rerouteNo="0" devices="tripinfo_f_EW.4" vType="car" speedFactor="0.90" vaporized=""/>
    <tripinfo id="f_EW.5" depart="122.00" departLane="edge_E_in_0" departPos="2.10" departSpeed="0.00" departDelay="0.00" arrival="233.00" arrivalLane="edge_W_out_0" arrivalPos="492.80" arrivalSpeed="12.80" duration="111.00" routeLength="997.90" waitingTime="17.00" waitingCount="1" stopTime="0.00" timeLoss="33.28" rerouteNo="0" devices="tripinfo_f_EW.5" vType="moto" speedFactor="0.94" vaporized=""/>
    <tripinfo id="f_SN.9" depart="109.00" departLane="edge_S_in_0" departPos="5.00" departSpeed="0.00" departDelay="0.00" arrival="239.00" arrivalLane="edge_N_out_0" arrivalPos="492.80" arrivalSpeed="12.28" duration="130.00" routeLength="995.00" waitingTime="39.00" waitingCount="1" stopTime="0.00" timeLoss="52.37" rerouteNo="0" devices="tripinfo_f_SN.9" vType="car" speedFactor="0.93" vaporized=""/>
    <tripinfo id="f_EW.6" depart="134.00" departLane="edge_E_in_0" departPos="5.00" departSpeed="0.00" departDelay="0.00" arrival="243.00" arrivalLane="edge_W_out_0" arrivalPos="492.80" arrivalSpeed="9.87" duration="109.00" routeLength="995.00" waitingTime="0.00" waitingCount="0" stopTime="0.00" timeLoss="10.48" rerouteNo="0" devices="tripinfo_f_EW.6" vType="car" speedFactor="0.73" vaporized=""/>
    <tripinfo id="f_SN.10" depart="115.00" departLane="edge_S_in_0" departPos="12.10" departSpeed="0.00" departDelay="0.00" arrival="254.00" arrivalLane="edge_N_out_0" arrivalPos="492.80" arrivalSpeed="9.78" duration="139.00" routeLength="987.90" waitingTime="25.00" waitingCount="1" stopTime="0.00" timeLoss="39.66" rerouteNo="0" devices="tripinfo_f_SN.10" vType="bus" speedFactor="0.92" vaporized=""/>
    <tripinfo id="f_WE.3" depart="148.00" departLane="edge_W_in_0" departPos="5.00" departSpeed="0.00" departDelay="0.00" arrival="255.00" arrivalLane="edge_E_out_0" arrivalPos="492.80" arrivalSpeed="11.50" duration="107.00" routeLength="995.00" waitingTime="11.00" waitingCount="1" stopTime="0.00" timeLoss="23.12" rerouteNo="0" devices="tripinfo_f_WE.3" vType="car" speedFactor="0.86" vaporized=""/>
    <tripinfo id="f_SN.11" depart="122.00" departLane="edge_S_in_0" departPos="5.00" departSpeed="0.00" departDelay="0.00" arrival="256.00" arrivalLane="edge_N_out_0" arrivalPos="492.80" arrivalSpeed="12.97" duration="134.00" routeLength="995.00" waitingTime="24.00" waitingCount="1" stopTime="0.00" timeLoss="66.31" rerouteNo="0" devices="tripinfo_f_SN.11" vType="car" speedFactor="1.06" vaporized=""/>
    <tripinfo id="f_WE.4" depart="153.00" departLane="edge_W_in_0" departPos="2.10" departSpeed="0.00" departDelay="0.00" arrival="257.00" arrivalLane="edge_E_out_0" arrivalPos="492.80" arrivalSpeed="15.43" duration="104.00" routeLength="997.90" waitingTime="9.00" waitingCount="1" stopTime="0.00" timeLoss="38.97" rerouteNo="0" devices="tripinfo_f_WE.4" vType="moto" speedFactor="1.12" vaporized=""/>
    <tripinfo id="f_WE.5" depart="165.00" departLane="edge_W_in_0" departPos="5.00" departSpeed="0.00" departDelay="0.00" arrival="258.00" arrivalLane="edge_E_out_0" arrivalPos="492.80" arrivalSpeed="13.85" duration="93.00" routeLength="995.00" waitingTime="3.00" waitingCount="1" stopTime="0.00" timeLoss="22.57" rerouteNo="0" devices="tripinfo_f_WE.5" vType="car" speedFactor="1.02" vaporized=""/>
    <tripinfo id="f_WE.6" depart="174.00" departLane="edge_W_in_0" departPos="5.00" departSpeed="0.00" departDelay="0.00" arrival="260.00" arrivalLane="edge_E_out_0" arrivalPos="492.80" arrivalSpeed="12.86" duration="86.00" routeLength="995.00" waitingTime="0.00" waitingCount="0" stopTime="0.00" timeLoss="14.16" rerouteNo="0" devices="tripinfo_f_WE.6" vType="car" speedFactor="1.01" vaporized=""/>
    <tripinfo id="f_NW.2" depart="165.00" departLane="edge_N_in_0" departPos="5.00" departSpeed="0.00" departDelay="0.00" arrival="261.00" arrivalLane="edge_W_out_0" arrivalPos="492.80" arrivalSpeed="14.30" duration="96.00" routeLength="989.63" waitingTime="15.00" waitingCount="1" stopTime="0.00" timeLoss="28.61" rerouteNo="0" devices="tripinfo_f_NW.2" vType="car" speedFactor="1.13" vaporized=""/>
    <tripinfo id="f_NS.5" depart="159.00" departLane="edge_N_in_0" departPos="2.10" departSpeed="0.00" departDelay="0.00" arrival="263.00" arrivalLane="edge_S_out_0" arrivalPos="492.80" arrivalSpeed="13.06" duration="104.00" routeLength="997.90" waitingTime="19.00" waitingCount="1" stopTime="0.00" timeLoss="29.76" rerouteNo="0" devices="tripinfo_f_NS.5" vType="moto" speedFactor="0.98" vaporized=""/>
    <tripinfo id="f_NS.6" depart="184.00" departLane="edge_N_in_0" departPos="2.10" departSpeed="0.00" departDelay="0.00" arrival="264.00" arrivalLane="edge_S_out_0" arrivalPos="492.80" arrivalSpeed="15.17" duration="80.00" routeLength="997.90" waitingTime="3.00" waitingCount="1" stopTime="0.00" timeLoss="19.88" rerouteNo="0" devices="tripinfo_f_NS.6" vType="moto" speedFactor="1.20" vaporized=""/>
    <tripinfo id="f_WE.7" depart="177.00" departLane="edge_W_in_0" departPos="2.10" departSpeed="0.00" departDelay="0.00" arrival="271.00" arrivalLane="edge_E_out_0" arrivalPos="492.80" arrivalSpeed="14.56" duration="94.00" routeLength="997.90" waitingTime="13.00" waitingCount="1" stopTime="0.00" timeLoss="28.48" rerouteNo="0" devices="tripinfo_f_WE.7" vType="moto" speedFactor="1.10" vaporized=""/>
    <tripinfo id="f_EW.7" depart="185.00" departLane="edge_E_in_0" departPos="5.00" departSpeed="0.00" departDelay="0.00" arrival="291.00" arrivalLane="edge_W_out_0" arrivalPos="492.80" arrivalSpeed="12.78" duration="106.00" routeLength="995.00" waitingTime="15.00" waitingCount="1" stopTime="0.00" timeLoss="27.77" rerouteNo="0" devices="tripinfo_f_EW.7" vType="car" speedFactor="0.92" vaporized=""/>
    <tripinfo id="f_EW.8" depart="190.00" departLane="edge_E_in_0" departPos="5.00" departSpeed="0.00" departDelay="0.00" arrival="293.00" arrivalLane="edge_W_out_0" arrivalPos="492.80" arrivalSpeed="13.11" duration="103.00" routeLength="995.00" waitingTime="14.00" waitingCount="1" stopTime="0.00" timeLoss="29.34" rerouteNo="0" devices="tripinfo_f_EW.8" vType="car" speedFactor="0.98" vaporized=""/>
    <tripinfo id="f_EW.9" depart="193.00" departLane="edge_E_in_0" departPos="5.00" departSpeed="0.00" departDelay="1.00" arrival="294.00" arrivalLane="edge_W_out_0" arrivalPos="492.80" arrivalSpeed="13.97" duration="101.00" routeLength="995.00" waitingTime="13.00" waitingCount="1" stopTime="0.00" timeLoss="34.38" rerouteNo="0" devices="tripinfo_f_EW.9" vType="car" speedFactor="1.08" vaporized=""/>
    <tripinfo id="f_EN.1" depart="211.00" departLane="edge_E_in_0" departPos="5.00" departSpeed="0.00" departDelay="0.00" arrival="299.00" arrivalLane="edge_N_out_0" arrivalPos="492.80" arrivalSpeed="12.71" duration="88.00" routeLength="989.63" waitingTime="0.00" waitingCount="0" stopTime="0.00" timeLoss="9.13" rerouteNo="0" devices="tripinfo_f_EN.1" vType="car" speedFactor="0.92" vaporized=""/>
    <tripinfo id="f_WS.1" depart="218.00" departLane="edge_W_in_0" departPos="5.00" departSpeed="0.00" departDelay="0.00" arrival="301.00" arrivalLane="edge_S_out_0" arrivalPos="492.80" arrivalSpeed="13.60" duration="83.00" routeLength="989.63" waitingTime="0.00" waitingCount="0" stopTime="0.00" timeLoss="9.52" rerouteNo="0" devices="tripinfo_f_WS.1" vType="car" speedFactor="0.98" vaporized=""/>
    <tripinfo id="f_WE.8" depart="222.00" departLane="edge_W_in_0" departPos="5.00" departSpeed="0.00" departDelay="0.00" arrival="302.00" arrivalLane="edge_E_out_0" arrivalPos="492.80" arrivalSpeed="13.48" duration="80.00" routeLength="995.00" waitingTime="0.00" waitingCount="0" stopTime="0.00" timeLoss="9.23" rerouteNo="0" devices="tripinfo_f_WE.8" vType="car" speedFactor="1.02" vaporized=""/>
    <tripinfo id="f_NS.7" depart="191.00" departLane="edge_N_in_0" departPos="5.00" departSpeed="0.00" departDelay="0.00" arrival="316.00" arrivalLane="edge_S_out_0" arrivalPos="492.80" arrivalSpeed="12.41" duration="125.00" routeLength="995.00" waitingTime="37.00" waitingCount="1" stopTime="0.00" timeLoss="49.88" rerouteNo="0" devices="tripinfo_f_NS.7" vType="car" speedFactor="0.96" vaporized=""/>
    <tripinfo id="f_NS.8" depart="209.00" departLane="edge_N_in_0" departPos="5.00" departSpeed="0.00" departDelay="0.00" arrival="318.00" arrivalLane="edge_S_out_0" arrivalPos="492.80" arrivalSpeed="12.70" duration="109.00" routeLength="995.00" waitingTime="21.00" waitingCount="1" stopTime="0.00" timeLoss="32.97" rerouteNo="0" devices="tripinfo_f_NS.8" vType="car" speedFactor="0.95" vaporized=""/>
    <tripinfo id="f_SE.1" depart="133.00" departLane="edge_S_in_0" departPos="5.00" departSpeed="0.00" departDelay="0.00" arrival="326.00" arrivalLane="edge_E_out_0" arrivalPos="492.80" arrivalSpeed="13.72" duration="193.00" routeLength="989.63" waitingTime="102.00" waitingCount="2" stopTime="0.00" timeLoss="122.31" rerouteNo="0" devices="tripinfo_f_SE.1" vType="car" speedFactor="1.03" vaporized=""/>
    <tripinfo id="f_SN.12" depart="185.00" departLane="edge_S_in_0" departPos="2.10" departSpeed="0.00" departDelay="0.00" arrival="329.00" arrivalLane="edge_N_out_0" arrivalPos="492.80" arrivalSpeed="13.42" duration="144.00" routeLength="997.90" waitingTime="59.00" waitingCount="1" stopTime="0.00" timeLoss="71.86" rerouteNo="0" devices="tripinfo_f_SN.12" vType="moto" speedFactor="1.00" vaporized=""/>
    <tripinfo id="f_SN.13" depart="194.00" departLane="edge_S_in_0" departPos="2.10" departSpeed="0.00" departDelay="0.00" arrival="331.00" arrivalLane="edge_N_out_0" arrivalPos="492.80" arrivalSpeed="14.16" duration="137.00" routeLength="997.90" waitingTime="55.00" waitingCount="1" stopTime="0.00" timeLoss="70.78" rerouteNo="0" devices="tripinfo_f_SN.13" vType="moto" speedFactor="1.10" vaporized=""/>
    <tripinfo id="f_SN.14" depart="246.00" departLane="edge_S_in_0" departPos="5.00" departSpeed="0.00" departDelay="0.00" arrival="332.00" arrivalLane="edge_N_out_0" arrivalPos="492.80" arrivalSpeed="13.42" duration="86.00" routeLength="995.00" waitingTime="4.00" waitingCount="1" stopTime="0.00" timeLoss="17.29" rerouteNo="0" devices="tripinfo_f_SN.14" vType="car" speedFactor="1.05" vaporized=""/>
    <tripinfo id="f_NS.9" depart="251.00" departLane="edge_N_in_0" departPos="5.00" departSpeed="0.00" departDelay="0.00" arrival="344.00" arrivalLane="edge_S_out_0" arrivalPos="492.80" arrivalSpeed="11.44" duration="93.00" routeLength="995.00" waitingTime="0.00" waitingCount="0" stopTime="0.00" timeLoss="9.07" rerouteNo="0" devices="tripinfo_f_NS.9" vType="car" speedFactor="0.86" vaporized=""/>
    <tripinfo id="f_NS.10" depart="259.00" departLane="edge_N_in_0" departPos="5.00" departSpeed="0.00" departDelay="0.00" arrival="346.00" arrivalLane="edge_S_out_0" arrivalPos="492.80" arrivalSpeed="13.99" duration="87.00" routeLength="995.00" waitingTime="0.00" waitingCount="0" stopTime="0.00" timeLoss="17.56" rerouteNo="0" devices="tripinfo_f_NS.10" vType="car" speedFactor="1.04" vaporized=""/>
    <tripinfo id="f_SN.15" depart="275.00" departLane="edge_S_in_0" departPos="5.00" departSpeed="0.00" departDelay="0.00" arrival="358.00" arrivalLane="edge_N_out_0" arrivalPos="492.80" arrivalSpeed="13.16" duration="83.00" routeLength="995.00" waitingTime="0.00" waitingCount="0" stopTime="0.00" timeLoss="8.42" rerouteNo="0" devices="tripinfo_f_SN.15" vType="car" speedFactor="0.97" vaporized=""/>
    <tripinfo id="f_EW.10" depart="214.00" departLane="edge_E_in_0" departPos="5.00" departSpeed="0.00" departDelay="0.00" arrival="372.00" arrivalLane="edge_W_out_0" arrivalPos="492.80" arrivalSpeed="11.97" duration="158.00" routeLength="995.00" waitingTime="63.00" waitingCount="1" stopTime="0.00" timeLoss="74.59" rerouteNo="0" devices="tripinfo_f_EW.10" vType="car" speedFactor="0.87" vaporized=""/>
    <tripinfo id="f_EW.11" depart="218.00" departLane="edge_E_in_0" departPos="5.00" departSpeed="0.00" departDelay="0.00" arrival="374.00" arrivalLane="edge_W_out_0" arrivalPos="492.80" arrivalSpeed="11.47" duration="156.00" routeLength="995.00" waitingTime="62.00" waitingCount="1" stopTime="0.00" timeLoss="76.19" rerouteNo="0" devices="tripinfo_f_EW.11" vType="car" speedFactor="0.91" vaporized=""/>
    <tripinfo id="f_EW.12" depart="221.00" departLane="edge_E_in_0" departPos="5.00" departSpeed="0.00" departDelay="1.00" arrival="376.00" arrivalLane="edge_W_out_0" arrivalPos="492.80" arrivalSpeed="12.28" duration="155.00" routeLength="995.00" waitingTime="60.00" waitingCount="1" stopTime="0.00" timeLoss="73.38" rerouteNo="0" devices="tripinfo_f_EW.12" vType="car" speedFactor="0.89" vaporized=""/>
    <tripinfo id="f_EW.13" depart="228.00" departLane="edge_E_in_0" departPos="5.00" departSpeed="0.00" departDelay="0.00" arrival="377.00" arrivalLane="edge_W_out_0" arrivalPos="492.80" arrivalSpeed="13.98" duration="149.00" routeLength="995.00" waitingTime="59.00" waitingCount="1" stopTime="0.00" timeLoss="82.27" rerouteNo="0" devices="tripinfo_f_EW.13" vType="car" speedFactor="1.08" vaporized=""/>
    <tripinfo id="f_WS.2" depart="233.00" departLane="edge_W_in_0" departPos="5.00" departSpeed="0.00" departDelay="3.00" arrival="379.00" arrivalLane="edge_S_out_0" arrivalPos="492.80" arrivalSpeed="13.07" duration="146.00" routeLength="989.63" waitingTime="61.00" waitingCount="1" stopTime="0.00" timeLoss="73.36" rerouteNo="0" devices="tripinfo_f_WS.2" vType="car" speedFactor="0.99" vaporized=""/>
    <tripinfo id="f_WE.9" depart="240.00" departLane="edge_W_in_0" departPos="5.00" departSpeed="0.00" departDelay="0.00" arrival="386.00" arrivalLane="edge_E_out_0" arrivalPos="492.80" arrivalSpeed="11.22" duration="146.00" routeLength="995.00" waitingTime="51.00" waitingCount="1" stopTime="0.00" timeLoss="63.98" rerouteNo="0" devices="tripinfo_f_WE.9" vType="car" speedFactor="0.88" vaporized=""/>
    <tripinfo id="f_WE.10" depart="282.00" departLane="edge_W_in_0" departPos="5.00" departSpeed="0.00" departDelay="0.00" arrival="388.00" arrivalLane="edge_E_out_0" arrivalPos="492.80" arrivalSpeed="13.40" duration="106.00" routeLength="995.00" waitingTime="17.00" waitingCount="1" stopTime="0.00" timeLoss="34.37" rerouteNo="0" devices="tripinfo_f_WE.10" vType="car" speedFactor="1.01" vaporized=""/>
    <tripinfo id="f_EW.14" depart="260.00" departLane="edge_E_in_0" departPos="5.00" departSpeed="0.00" departDelay="2.00" arrival="392.00" arrivalLane="edge_W_out_0" arrivalPos="492.80" arrivalSpeed="13.12" duration="132.00" routeLength="995.00" waitingTime="38.00" waitingCount="2" stopTime="0.00" timeLoss="58.43" rerouteNo="0" devices="tripinfo_f_EW.14" vType="car" speedFactor="0.98" vaporized=""/>
    <tripinfo id="f_EW.15" depart="263.00" departLane="edge_E_in_0" departPos="5.00" departSpeed="0.00" departDelay="3.00" arrival="397.00" arrivalLane="edge_W_out_0" arrivalPos="492.80" arrivalSpeed="12.97" duration="134.00" routeLength="995.00" waitingTime="34.00" waitingCount="2" stopTime="0.00" timeLoss="56.53" rerouteNo="0" devices="tripinfo_f_EW.15" vType="car" speedFactor="0.94" vaporized=""/>
    <tripinfo id="f_EW.16" depart="275.00" departLane="edge_E_in_0" departPos="2.10" departSpeed="0.00" departDelay="0.00" arrival="398.00" arrivalLane="edge_W_out_0" arrivalPos="492.80" arrivalSpeed="13.71" duration="123.00" routeLength="997.90" waitingTime="27.00" waitingCount="2" stopTime="0.00" timeLoss="53.87" rerouteNo="0" devices="tripinfo_f_EW.16" vType="moto" speedFactor="1.04" vaporized=""/>
    <tripinfo id="f_NS.11" depart="270.00" departLane="edge_N_in_0" departPos="5.00" departSpeed="0.00" departDelay="0.00" arrival="407.00" arrivalLane="edge_S_out_0" arrivalPos="492.80" arrivalSpeed="12.91" duration="137.00" routeLength="995.00" waitingTime="48.00" waitingCount="1" stopTime="0.00" timeLoss="60.31" rerouteNo="0" devices="tripinfo_f_NS.11" vType="car" speedFactor="0.94" vaporized=""/>
    <tripinfo id="f_NS.12" depart="305.00" departLane="edge_N_in_0" departPos="5.00" departSpeed="0.00" departDelay="0.00" arrival="409.00" arrivalLane="edge_S_out_0" arrivalPos="492.80" arrivalSpeed="13.90" duration="104.00" routeLength="995.00" waitingTime="18.00" waitingCount="1" stopTime="0.00" timeLoss="35.45" rerouteNo="0" devices="tripinfo_f_NS.12" vType="car" speedFactor="1.06" vaporized=""/>
    <tripinfo id="f_EW.17" depart="278.00" departLane="edge_E_in_0" departPos="5.00" departSpeed="0.00" departDelay="0.00" arrival="410.00" arrivalLane="edge_W_out_0" arrivalPos="492.80" arrivalSpeed="10.01" duration="132.00" routeLength="995.00" waitingTime="16.00" waitingCount="2" stopTime="0.00" timeLoss="40.89" rerouteNo="0" devices="tripinfo_f_EW.17" vType="car" speedFactor="0.79" vaporized=""/>
    <tripinfo id="f_NS.13" depart="335.00" departLane="edge_N_in_0" departPos="2.10" departSpeed="0.00" departDelay="0.00" arrival="410.00" arrivalLane="edge_S_out_0" arrivalPos="492.80" arrivalSpeed="15.09" duration="75.00" routeLength="997.90" waitingTime="0.00" waitingCount="0" stopTime="0.00" timeLoss="13.67" rerouteNo="0" devices="tripinfo_f_NS.13" vType="moto" speedFactor="1.18" vaporized=""/>
    <tripinfo id="f_SN.16" depart="294.00" departLane="edge_S_in_0" departPos="5.00" departSpeed="0.00" departDelay="0.00" arrival="426.00" arrivalLane="edge_N_out_0" arrivalPos="492.80" arrivalSpeed="10.44" duration="132.00" routeLength="995.00" waitingTime="33.00" waitingCount="1" stopTime="0.00" timeLoss="43.86" rerouteNo="0" devices="tripinfo_f_SN.16" vType="car" speedFactor="0.82" vaporized=""/>
    <tripinfo id="f_SN.17" depart="304.00" departLane="edge_S_in_0" departPos="5.00" departSpeed="0.00" departDelay="0.00" arrival="427.00" arrivalLane="edge_N_out_0" arrivalPos="492.80" arrivalSpeed="12.30" duration="123.00" routeLength="995.00" waitingTime="31.00" waitingCount="1" stopTime="0.00" timeLoss="56.47" rerouteNo="0" devices="tripinfo_f_SN.17" vType="car" speedFactor="1.10" vaporized=""/>