<?xml version="1.0" encoding="UTF-8"?>

<!-- generated on 2026-04-03T10:42:04.534835+05:30 by Eclipse SUMO sumo 1.25.0
<sumoConfiguration xmlns:xsi="http://www.w3.org/2001/XMLSchema-instance" xsi:noNamespaceSchemaLocation="http://sumo.dlr.de/xsd/sumoConfiguration.xsd">

    <input>
        <net-file value="C:\Users\gathi\projects\FedTraffic-RL\sumo_config\hello.net.xml"/>
        <route-files value="C:\Users\gathi\projects\FedTraffic-RL\sumo_config\hello.rou.xml"/>
        <additional-files value="C:\Users\gathi\projects\FedTraffic-RL\sumo_config\hello.view.xml"/>
    </input>

    <output>
        <tripinfo-output value="C:\Users\gathi\projects\FedTraffic-RL\sumo_config\tripinfo.xml"/>
    </output>

    <time>
        <begin value="0"/>
        <end value="500"/>
    </time>

    <report>
        <no-warnings value="true"/>
        <log value="C:\Users\gathi\projects\FedTraffic-RL\sumo_config\sumo_debug.log"/>
        <error-log value="C:\Users\gathi\projects\FedTraffic-RL\sumo_config\sumo_debug.log"/>
        <no-step-log value="true"/>
    </report>

    <traci_server>
        <remote-port value="52069"/>
    </traci_server>

    <gui_only>
        <quit-on-end value="true"/>
        <start value="true"/>
    </gui_only>

</sumoConfiguration>
-->

<tripinfos xmlns:xsi="http://www.w3.org/2001/XMLSchema-instance" xsi:noNamespaceSchemaLocation="http://sumo.dlr.de/xsd/tripinfo_file.xsd">
    <tripinfo id="asymmetric_EW.0" depart="0.00" departLane="edge_E_in_0" departPos="5.00" departSpeed="0.00" departDelay="0.00" arrival="87.00" arrivalLane="edge_W_out_0" arrivalPos="492.80" arrivalSpeed="13.16" duration="87.00" routeLength="995.00" waitingTime="3.00" waitingCount="1" stopTime="0.00" timeLoss="14.92" rerouteNo="0" devices="tripinfo_asymmetric_EW.0" vType="car" speedFactor="1.01" vaporized=""/>
    <tripinfo id="asymmetric_ES.0" depart="5.00" departLane="edge_E_in_0" departPos="5.00" departSpeed="0.00" departDelay="5.00" arrival="92.00" arrivalLane="edge_S_out_0" arrivalPos="492.80" arrivalSpeed="12.80" duration="87.00" routeLength="994.79" waitingTime="0.00" waitingCount="0" stopTime="0.00" timeLoss="14.08" rerouteNo="0" devices="tripinfo_asymmetric_ES.0" vType="car" speedFactor="1.08" vaporized=""/>
    <tripinfo id="asymmetric_EN.0" depart="3.00" departLane="edge_E_in_0" departPos="5.00" departSpeed="0.00" departDelay="3.00" arrival="93.00" arrivalLane="edge_N_out_0" arrivalPos="492.80" arrivalSpeed="12.45" duration="90.00" routeLength="989.63" waitingTime="0.00" waitingCount="0" stopTime="0.00" timeLoss="9.86" rerouteNo="0" devices="tripinfo_asymmetric_EN.0" vType="car" speedFactor="0.90" vaporized=""/>
    <tripinfo id="asymmetric_NE.0" depart="6.00" departLane="edge_N_in_0" departPos="5.00" departSpeed="0.00" departDelay="6.00" arrival="105.00" arrivalLane="edge_E_out_0" arrivalPos="492.80" arrivalSpeed="13.78" duration="99.00" routeLength="994.79" waitingTime="6.00" waitingCount="1" stopTime="0.00" timeLoss="26.29" rerouteNo="0" devices="tripinfo_asymmetric_NE.0" vType="car" speedFactor="1.04" vaporized=""/>
    <tripinfo id="asymmetric_NW.0" depart="3.00" departLane="edge_N_in_0" departPos="5.00" departSpeed="0.00" departDelay="3.00" arrival="106.00" arrivalLane="edge_W_out_0" arrivalPos="492.80" arrivalSpeed="11.40" duration="103.00" routeLength="989.63" waitingTime="9.00" waitingCount="1" stopTime="0.00" timeLoss="24.20" rerouteNo="0" devices="tripinfo_asymmetric_NW.0" vType="car" speedFactor="0.92" vaporized=""/>
    <tripinfo id="asymmetric_NS.0" depart="0.00" departLane="edge_N_in_0" departPos="5.00" departSpeed="0.00" departDelay="0.00" arrival="107.00" arrivalLane="edge_S_out_0" arrivalPos="492.80" arrivalSpeed="11.60" duration="107.00" routeLength="995.00" waitingTime="9.00" waitingCount="1" stopTime="0.00" timeLoss="21.36" rerouteNo="0" devices="tripinfo_asymmetric_NS.0" vType="car" speedFactor="0.84" vaporized=""/>
    <tripinfo id="asymmetric_NS.1" depart="8.00" departLane="edge_N_in_0" departPos="5.00" departSpeed="0.00" departDelay="6.00" arrival="109.00" arrivalLane="edge_S_out_0" arrivalPos="492.80" arrivalSpeed="13.83" duration="101.00" routeLength="995.00" waitingTime="6.00" waitingCount="1" stopTime="0.00" timeLoss="28.43" rerouteNo="0" devices="tripinfo_asymmetric_NS.1" vType="car" speedFactor="1.03" vaporized=""/>
    <tripinfo id="asymmetric_EW.1" depart="30.00" departLane="edge_E_in_0" departPos="5.00" departSpeed="0.00" departDelay="0.00" arrival="118.00" arrivalLane="edge_W_out_0" arrivalPos="492.80" arrivalSpeed="12.16" duration="88.00" routeLength="995.00" waitingTime="0.00" waitingCount="0" stopTime="0.00" timeLoss="7.98" rerouteNo="0" devices="tripinfo_asymmetric_EW.1" vType="car" speedFactor="0.90" vaporized=""/>
    <tripinfo id="asymmetric_EN.1" depart="33.00" departLane="edge_E_in_0" departPos="5.00" departSpeed="0.00" departDelay="3.00" arrival="118.00" arrivalLane="edge_N_out_0" arrivalPos="492.80" arrivalSpeed="12.54" duration="85.00" routeLength="989.63" waitingTime="0.00" waitingCount="0" stopTime="0.00" timeLoss="11.65" rerouteNo="0" devices="tripinfo_asymmetric_EN.1" vType="car" speedFactor="0.98" vaporized=""/>
    <tripinfo id="asymmetric_ES.1" depart="35.00" departLane="edge_E_in_0" departPos="5.00" departSpeed="0.00" departDelay="5.00" arrival="121.00" arrivalLane="edge_S_out_0" arrivalPos="492.80" arrivalSpeed="13.65" duration="86.00" routeLength="994.79" waitingTime="0.00" waitingCount="0" stopTime="0.00" timeLoss="12.90" rerouteNo="0" devices="tripinfo_asymmetric_ES.1" vType="car" speedFactor="1.05" vaporized=""/>
    <tripinfo id="asymmetric_NE.1" depart="15.00" departLane="edge_N_in_0" departPos="5.00" departSpeed="0.00" departDelay="13.00" arrival="129.00" arrivalLane="edge_E_out_0" arrivalPos="492.80" arrivalSpeed="13.43" duration="114.00" routeLength="994.79" waitingTime="18.00" waitingCount="2" stopTime="0.00" timeLoss="41.08" rerouteNo="0" devices="tripinfo_asymmetric_NE.1" vType="car" speedFactor="1.01" vaporized=""/>
    <tripinfo id="asymmetric_NW.1" depart="12.00" departLane="edge_N_in_0" departPos="5.00" departSpeed="0.00" departDelay="10.00" arrival="130.00" arrivalLane="edge_W_out_0" arrivalPos="492.80" arrivalSpeed="11.95" duration="118.00" routeLength="989.63" waitingTime="20.00" waitingCount="2" stopTime="0.00" timeLoss="37.32" rerouteNo="0" devices="tripinfo_asymmetric_NW.1" vType="car" speedFactor="0.89" vaporized=""/>
    <tripinfo id="asymmetric_NW.2" depart="20.00" departLane="edge_N_in_0" departPos="5.00" departSpeed="0.00" departDelay="16.00" arrival="133.00" arrivalLane="edge_W_out_0" arrivalPos="492.80" arrivalSpeed="13.87" duration="113.00" routeLength="989.63" waitingTime="14.00" waitingCount="2" stopTime="0.00" timeLoss="41.30" rerouteNo="0" devices="tripinfo_asymmetric_NW.2" vType="car" speedFactor="1.03" vaporized=""/>
    <tripinfo id="asymmetric_NS.2" depart="17.00" departLane="edge_N_in_0" departPos="5.00" departSpeed="0.00" departDelay="13.00" arrival="136.00" arrivalLane="edge_S_out_0" arrivalPos="492.80" arrivalSpeed="10.95" duration="119.00" routeLength="995.00" waitingTime="17.00" waitingCount="2" stopTime="0.00" timeLoss="36.20" rerouteNo="0" devices="tripinfo_asymmetric_NS.2" vType="car" speedFactor="0.87" vaporized=""/>
    <tripinfo id="asymmetric_NE.2" depart="23.00" departLane="edge_N_in_0" departPos="5.00" departSpeed="0.00" departDelay="19.00" arrival="137.00" arrivalLane="edge_E_out_0" arrivalPos="492.80" arrivalSpeed="13.75" duration="114.00" routeLength="994.79" waitingTime="13.00" waitingCount="2" stopTime="0.00" timeLoss="41.32" rerouteNo="0" devices="tripinfo_asymmetric_NE.2" vType="car" speedFactor="1.13" vaporized=""/>
    <tripinfo id="asymmetric_NW.3" depart="29.00" departLane="edge_N_in_0" departPos="5.00" departSpeed="0.00" departDelay="23.00" arrival="141.00" arrivalLane="edge_W_out_0" arrivalPos="492.80" arrivalSpeed="13.62" duration="112.00" routeLength="989.63" waitingTime="10.00" waitingCount="1" stopTime="0.00" timeLoss="40.20" rerouteNo="0" devices="tripinfo_asymmetric_NW.3" vType="car" speedFactor="1.15" vaporized=""/>
    <tripinfo id="asymmetric_NS.3" depart="26.00" departLane="edge_N_in_0" departPos="5.00" departSpeed="0.00" departDelay="20.00" arrival="143.00" arrivalLane="edge_S_out_0" arrivalPos="492.80" arrivalSpeed="11.06" duration="117.00" routeLength="995.00" waitingTime="10.00" waitingCount="1" stopTime="0.00" timeLoss="36.44" rerouteNo="0" devices="tripinfo_asymmetric_NS.3" vType="car" speedFactor="0.89" vaporized=""/>
    <tripinfo id="asymmetric_NE.3" depart="32.00" departLane="edge_N_in_0" departPos="5.00" departSpeed="0.00" departDelay="26.00" arrival="144.00" arrivalLane="edge_E_out_0" arrivalPos="492.80" arrivalSpeed="13.39" duration="112.00" routeLength="994.79" waitingTime="10.00" waitingCount="1" stopTime="0.00" timeLoss="38.85" rerouteNo="0" devices="tripinfo_asymmetric_NE.3" vType="car" speedFactor="1.12" vaporized=""/>
    <tripinfo id="asymmetric_NS.4" depart="35.00" departLane="edge_N_in_0" departPos="5.00" departSpeed="0.00" departDelay="27.00" arrival="146.00" arrivalLane="edge_S_out_0" arrivalPos="492.80" arrivalSpeed="13.72" duration="111.00" routeLength="995.00" waitingTime="9.00" waitingCount="1" stopTime="0.00" timeLoss="38.66" rerouteNo="0" devices="tripinfo_asymmetric_NS.4" vType="car" speedFactor="0.99" vaporized=""/>
    <tripinfo id="asymmetric_SE.0" depart="2.00" departLane="edge_S_in_0" departPos="5.00" departSpeed="0.00" departDelay="2.00" arrival="154.00" arrivalLane="edge_E_out_0" arrivalPos="492.80" arrivalSpeed="12.93" duration="152.00" routeLength="989.63" waitingTime="62.00" waitingCount="1" stopTime="0.00" timeLoss="79.51" rerouteNo="0" devices="tripinfo_asymmetric_SE.0" vType="car" speedFactor="1.12" vaporized=""/>
    <tripinfo id="asymmetric_SN.0" depart="0.00" departLane="edge_S_in_0" departPos="5.00" departSpeed="0.00" departDelay="0.00" arrival="157.00" arrivalLane="edge_N_out_0" arrivalPos="492.80" arrivalSpeed="12.09" duration="157.00" routeLength="995.00" waitingTime="64.00" waitingCount="1" stopTime="0.00" timeLoss="75.26" rerouteNo="0" devices="tripinfo_asymmetric_SN.0" vType="car" speedFactor="0.89" vaporized=""/>
    <tripinfo id="asymmetric_SN.1" depart="30.00" departLane="edge_S_in_0" departPos="5.00" departSpeed="0.00" departDelay="0.00" arrival="159.00" arrivalLane="edge_N_out_0" arrivalPos="492.80" arrivalSpeed="13.65" duration="129.00" routeLength="995.00" waitingTime="43.00" waitingCount="1" stopTime="0.00" timeLoss="56.82" rerouteNo="0" devices="tripinfo_asymmetric_SN.1" vType="car" speedFactor="1.09" vaporized=""/>
    <tripinfo id="asymmetric_SW.0" depart="5.00" departLane="edge_S_in_0" departPos="5.00" departSpeed="0.00" departDelay="5.00" arrival="160.00" arrivalLane="edge_W_out_0" arrivalPos="492.80" arrivalSpeed="11.61" duration="155.00" routeLength="994.79" waitingTime="62.00" waitingCount="1" stopTime="0.00" timeLoss="77.29" rerouteNo="0" devices="tripinfo_asymmetric_SW.0" vType="car" speedFactor="0.94" vaporized=""/>
    <tripinfo id="asymmetric_WE.0" depart="0.00" departLane="edge_W_in_0" departPos="5.00" departSpeed="0.00" departDelay="0.00" arrival="165.00" arrivalLane="edge_E_out_0" arrivalPos="492.80" arrivalSpeed="13.29" duration="165.00" routeLength="995.00" waitingTime="83.00" waitingCount="1" stopTime="0.00" timeLoss="93.15" rerouteNo="0" devices="tripinfo_asymmetric_WE.0" vType="car" speedFactor="1.09" vaporized=""/>
    <tripinfo id="asymmetric_WN.0" depart="3.00" departLane="edge_W_in_0" departPos="5.00" departSpeed="0.00" departDelay="3.00" arrival="171.00" arrivalLane="edge_N_out_0" arrivalPos="492.80" arrivalSpeed="11.52" duration="168.00" routeLength="994.79" waitingTime="78.00" waitingCount="1" stopTime="0.00" timeLoss="89.88" rerouteNo="0" devices="tripinfo_asymmetric_WN.0" vType="car" speedFactor="0.93" vaporized=""/>
    <tripinfo id="asymmetric_WS.0" depart="6.00" departLane="edge_W_in_0" departPos="5.00" departSpeed="0.00" departDelay="6.00" arrival="171.00" arrivalLane="edge_S_out_0" arrivalPos="492.80" arrivalSpeed="13.40" duration="165.00" routeLength="989.63" waitingTime="77.00" waitingCount="1" stopTime="0.00" timeLoss="92.48" rerouteNo="0" devices="tripinfo_asymmetric_WS.0" vType="car" speedFactor="1.01" vaporized=""/>
    <tripinfo id="asymmetric_WE.1" depart="30.00" departLane="edge_W_in_0" departPos="5.00" departSpeed="0.00" departDelay="0.00" arrival="173.00" arrivalLane="edge_E_out_0" arrivalPos="492.80" arrivalSpeed="13.87" duration="143.00" routeLength="995.00" waitingTime="57.00" waitingCount="1" stopTime="0.00" timeLoss="70.38" rerouteNo="0" devices="tripinfo_asymmetric_WE.1" vType="car" speedFactor="1.02" vaporized=""/>
    <tripinfo id="asymmetric_EW.2" depart="60.00" departLane="edge_E_in_0" departPos="5.00" departSpeed="0.00" departDelay="0.00" arrival="181.00" arrivalLane="edge_W_out_0" arrivalPos="492.80" arrivalSpeed="12.76" duration="121.00" routeLength="995.00" waitingTime="33.00" waitingCount="1" stopTime="0.00" timeLoss="44.41" rerouteNo="0" devices="tripinfo_asymmetric_EW.2" vType="car" speedFactor="0.94" vaporized=""/>
    <tripinfo id="asymmetric_EN.2" depart="62.00" departLane="edge_E_in_0" departPos="5.00" departSpeed="0.00" departDelay="2.00" arrival="181.00" arrivalLane="edge_N_out_0" arrivalPos="492.80" arrivalSpeed="12.87" duration="119.00" routeLength="989.63" waitingTime="32.00" waitingCount="1" stopTime="0.00" timeLoss="46.34" rerouteNo="0" devices="tripinfo_asymmetric_EN.2" vType="car" speedFactor="1.01" vaporized=""/>
    <tripinfo id="asymmetric_EW.3" depart="90.00" departLane="edge_E_in_0" departPos="5.00" departSpeed="0.00" departDelay="0.00" arrival="189.00" arrivalLane="edge_W_out_0" arrivalPos="492.80" arrivalSpeed="12.16" duration="99.00" routeLength="995.00" waitingTime="7.00" waitingCount="1" stopTime="0.00" timeLoss="21.17" rerouteNo="0" devices="tripinfo_asymmetric_EW.3" vType="car" speedFactor="0.92" vaporized=""/>
    <tripinfo id="asymmetric_NW.4" depart="38.00" departLane="edge_N_in_0" departPos="5.00" departSpeed="0.00" departDelay="30.00" arrival="193.00" arrivalLane="edge_W_out_0" arrivalPos="492.80" arrivalSpeed="12.54" duration="155.00" routeLength="989.63" waitingTime="50.00" waitingCount="2" stopTime="0.00" timeLoss="80.21" rerouteNo="0" devices="tripinfo_asymmetric_NW.4" vType="car" speedFactor="0.97" vaporized=""/>
    <tripinfo id="asymmetric_NE.4" depart="41.00" departLane="edge_N_in_0" departPos="5.00" departSpeed="0.00" departDelay="33.00" arrival="194.00" arrivalLane="edge_E_out_0" arrivalPos="492.80" arrivalSpeed="12.46" duration="153.00" routeLength="994.79" waitingTime="47.00" waitingCount="2" stopTime="0.00" timeLoss="80.34" rerouteNo="0" devices="tripinfo_asymmetric_NE.4" vType="car" speedFactor="1.02" vaporized=""/>
    <tripinfo id="asymmetric_ES.2" depart="65.00" departLane="edge_E_in_0" departPos="5.00" departSpeed="0.00" departDelay="5.00" arrival="194.00" arrivalLane="edge_S_out_0" arrivalPos="492.80" arrivalSpeed="10.01" duration="129.00" routeLength="994.79" waitingTime="26.00" waitingCount="1" stopTime="0.00" timeLoss="38.66" rerouteNo="0" devices="tripinfo_asymmetric_ES.2" vType="car" speedFactor="0.80" vaporized=""/>
    <tripinfo id="asymmetric_NS.5" depart="44.00" departLane="edge_N_in_0" departPos="5.00" departSpeed="0.00" departDelay="34.00" arrival="199.00" arrivalLane="edge_S_out_0" arrivalPos="492.80" arrivalSpeed="12.84" duration="155.00" routeLength="995.00" waitingTime="46.00" waitingCount="2" stopTime="0.00" timeLoss="78.40" rerouteNo="0" devices="tripinfo_asymmetric_NS.5" vType="car" speedFactor="0.94" vaporized=""/>
    <tripinfo id="asymmetric_NW.5" depart="47.00" departLane="edge_N_in_0" departPos="5.00" departSpeed="0.00" departDelay="37.00" arrival="200.00" arrivalLane="edge_W_out_0" arrivalPos="492.80" arrivalSpeed="13.04" duration="153.00" routeLength="989.63" waitingTime="44.00" waitingCount="2" stopTime="0.00" timeLoss="80.46" rerouteNo="0" devices="tripinfo_asymmetric_NW.5" vType="car" speedFactor="1.10" vaporized=""/>
    <tripinfo id="asymmetric_NE.5" depart="49.00" departLane="edge_N_in_0" departPos="5.00" departSpeed="0.00" departDelay="39.00" arrival="210.00" arrivalLane="edge_E_out_0" arrivalPos="492.80" arrivalSpeed="11.56" duration="161.00" routeLength="994.79" waitingTime="43.00" waitingCount="2" stopTime="0.00" timeLoss="74.03" rerouteNo="0" devices="tripinfo_asymmetric_NE.5" vType="car" speedFactor="0.83" vaporized=""/>
    <tripinfo id="asymmetric_SE.1" depart="33.00" departLane="edge_S_in_0" departPos="5.00" departSpeed="0.00" departDelay="3.00" arrival="212.00" arrivalLane="edge_E_out_0" arrivalPos="492.80" arrivalSpeed="13.49" duration="179.00" routeLength="989.63" waitingTime="85.00" waitingCount="2" stopTime="0.00" timeLoss="104.78" rerouteNo="0" devices="tripinfo_asymmetric_SE.1" vType="car" speedFactor="0.98" vaporized=""/>
    <tripinfo id="asymmetric_SN.2" depart="60.00" departLane="edge_S_in_0" departPos="5.00" departSpeed="0.00" departDelay="0.00" arrival="213.00" arrivalLane="edge_N_out_0" arrivalPos="492.80" arrivalSpeed="13.14" duration="153.00" routeLength="995.00" waitingTime="60.00" waitingCount="2" stopTime="0.00" timeLoss="81.05" rerouteNo="0" devices="tripinfo_asymmetric_SN.2" vType="car" speedFactor="1.04" vaporized=""/>
    <tripinfo id="asymmetric_SE.2" depart="63.00" departLane="edge_S_in_0" departPos="5.00" departSpeed="0.00" departDelay="3.00" arrival="215.00" arrivalLane="edge_E_out_0" arrivalPos="492.80" arrivalSpeed="12.46" duration="152.00" routeLength="989.63" waitingTime="57.00" waitingCount="2" stopTime="0.00" timeLoss="79.53" rerouteNo="0" devices="tripinfo_asymmetric_SE.2" vType="car" speedFactor="1.18" vaporized=""/>
    <tripinfo id="asymmetric_SW.1" depart="35.00" departLane="edge_S_in_0" departPos="5.00" departSpeed="0.00" departDelay="5.00" arrival="220.00" arrivalLane="edge_W_out_0" arrivalPos="492.80" arrivalSpeed="10.39" duration="185.00" routeLength="994.79" waitingTime="76.00" waitingCount="2" stopTime="0.00" timeLoss="97.63" rerouteNo="0" devices="tripinfo_asymmetric_SW.1" vType="car" speedFactor="0.83" vaporized=""/>
    <tripinfo id="asymmetric_NS.6" depart="53.00" departLane="edge_N_in_0" departPos="5.00" departSpeed="0.00" departDelay="41.00" arrival="221.00" arrivalLane="edge_S_out_0" arrivalPos="492.80" arrivalSpeed="13.54" duration="168.00" routeLength="995.00" waitingTime="54.00" waitingCount="3" stopTime="0.00" timeLoss="96.36" rerouteNo="0" devices="tripinfo_asymmetric_NS.6" vType="car" speedFactor="1.03" vaporized=""/>
    <tripinfo id="asymmetric_NW.6" depart="56.00" departLane="edge_N_in_0" departPos="5.00" departSpeed="0.00" departDelay="44.00" arrival="223.00" arrivalLane="edge_W_out_0" arrivalPos="492.80" arrivalSpeed="13.88" duration="167.00" routeLength="989.63" waitingTime="54.00" waitingCount="3" stopTime="0.00" timeLoss="95.24" rerouteNo="0" devices="tripinfo_asymmetric_NW.6" vType="car" speedFactor="1.07" vaporized=""/>
    <tripinfo id="asymmetric_NE.6" depart="59.00" departLane="edge_N_in_0" departPos="5.00" departSpeed="0.00" departDelay="47.00" arrival="227.00" arrivalLane="edge_E_out_0" arrivalPos="492.80" arrivalSpeed="13.33" duration="168.00" routeLength="994.79" waitingTime="54.00" waitingCount="3" stopTime="0.00" timeLoss="94.98" rerouteNo="0" devices="tripinfo_asymmetric_NE.6" vType="car" speedFactor="1.04" vaporized=""/>
    <tripinfo id="asymmetric_NE.7" depart="68.00" departLane="edge_N_in_0" departPos="5.00" departSpeed="0.00" departDelay="54.00" arrival="235.00" arrivalLane="edge_E_out_0" arrivalPos="492.80" arrivalSpeed="13.32" duration="167.00" routeLength="994.79" waitingTime="46.00" waitingCount="2" stopTime="0.00" timeLoss="94.35" rerouteNo="0" devices="tripinfo_asymmetric_NE.7" vType="car" speedFactor="1.02" vaporized=""/>
    <tripinfo id="asymmetric_NW.7" depart="65.00" departLane="edge_N_in_0" departPos="5.00" departSpeed="0.00" departDelay="51.00" arrival="237.00" arrivalLane="edge_W_out_0" arrivalPos="492.80" arrivalSpeed="12.38" duration="172.00" routeLength="989.63" waitingTime="46.00" waitingCount="2" stopTime="0.00" timeLoss="91.11" rerouteNo="0" devices="tripinfo_asymmetric_NW.7" vType="car" speedFactor="0.90" vaporized=""/>
    <tripinfo id="asymmetric_NS.7" depart="62.00" departLane="edge_N_in_0" departPos="5.00" departSpeed="0.00" departDelay="48.00" arrival="241.00" arrivalLane="edge_S_out_0" arrivalPos="492.80" arrivalSpeed="10.70" duration="179.00" routeLength="995.00" waitingTime="47.00" waitingCount="2" stopTime="0.00" timeLoss="85.43" rerouteNo="0" devices="tripinfo_asymmetric_NS.7" vType="car" speedFactor="0.77" vaporized=""/>
    <tripinfo id="asymmetric_NS.8" depart="71.00" departLane="edge_N_in_0" departPos="5.00" departSpeed="0.00" departDelay="55.00" arrival="243.00" arrivalLane="edge_S_out_0" arrivalPos="492.80" arrivalSpeed="10.80" duration="172.00" routeLength="995.00" waitingTime="45.00" waitingCount="2" stopTime="0.00" timeLoss="89.53" rerouteNo="0" devices="tripinfo_asymmetric_NS.8" vType="car" speedFactor="0.88" vaporized=""/>
    <tripinfo id="asymmetric_ES.3" depart="95.00" departLane="edge_E_in_0" departPos="5.00" departSpeed="0.00" departDelay="5.00" arrival="244.00" arrivalLane="edge_S_out_0" arrivalPos="492.80" arrivalSpeed="13.39" duration="149.00" routeLength="994.79" waitingTime="49.00" waitingCount="1" stopTime="0.00" timeLoss="76.84" rerouteNo="0" devices="tripinfo_asymmetric_ES.3" vType="car" speedFactor="1.14" vaporized=""/>
    <tripinfo id="asymmetric_EN.3" depart="93.00" departLane="edge_E_in_0" departPos="5.00" departSpeed="0.00" departDelay="3.00" arrival="249.00" arrivalLane="edge_N_out_0" arrivalPos="492.80" arrivalSpeed="10.49" duration="156.00" routeLength="989.63" waitingTime="52.00" waitingCount="2" stopTime="0.00" timeLoss="70.76" rerouteNo="0" devices="tripinfo_asymmetric_EN.3" vType="car" speedFactor="0.85" vaporized=""/>
    <tripinfo id="asymmetric_EN.4" depart="123.00" departLane="edge_E_in_0" departPos="5.00" departSpeed="0.00" departDelay="3.00" arrival="250.00" arrivalLane="edge_N_out_0" arrivalPos="492.80" arrivalSpeed="12.91" duration="127.00" routeLength="989.63" waitingTime="34.00" waitingCount="1" stopTime="0.00" timeLoss="55.21" rerouteNo="0" devices="tripinfo_asymmetric_EN.4" vType="car" speedFactor="1.04" vaporized=""/>
    <tripinfo id="asymmetric_EW.4" depart="120.00" departLane="edge_E_in_0" departPos="5.00" departSpeed="0.00" departDelay="0.00" arrival="251.00" arrivalLane="edge_W_out_0" arrivalPos="492.80" arrivalSpeed="10.59" duration="131.00" routeLength="995.00" waitingTime="35.00" waitingCount="1" stopTime="0.00" timeLoss="48.47" rerouteNo="0" devices="tripinfo_asymmetric_EW.4" vType="car" speedFactor="0.87" vaporized=""/>
    <tripinfo id="asymmetric_NW.8" depart="74.00" departLane="edge_N_in_0" departPos="5.00" departSpeed="0.00" departDelay="58.00" arrival="255.00" arrivalLane="edge_W_out_0" arrivalPos="492.80" arrivalSpeed="13.13" duration="181.00" routeLength="989.63" waitingTime="56.00" waitingCount="3" stopTime="0.00" timeLoss="108.87" rerouteNo="0" devices="tripinfo_asymmetric_NW.8" vType="car" speedFactor="1.06" vaporized=""/>
    <tripinfo id="asymmetric_NE.8" depart="77.00" departLane="edge_N_in_0" departPos="5.00" departSpeed="0.00" departDelay="61.00" arrival="257.00" arrivalLane="edge_E_out_0" arrivalPos="492.80" arrivalSpeed="13.70" duration="180.00" routeLength="994.79" waitingTime="53.00" waitingCount="3" stopTime="0.00" timeLoss="107.30" rerouteNo="0" devices="tripinfo_asymmetric_NE.8" vType="car" speedFactor="1.17" vaporized=""/>
    <tripinfo id="asymmetric_NS.9" depart="80.00" departLane="edge_N_in_0" departPos="5.00" departSpeed="0.00" departDelay="62.00" arrival="260.00" arrivalLane="edge_S_out_0" arrivalPos="492.80" arrivalSpeed="13.42" duration="180.00" routeLength="995.00" waitingTime="51.00" waitingCount="3" stopTime="0.00" timeLoss="107.72" rerouteNo="0" devices="tripinfo_asymmetric_NS.9" vType="car" speedFactor="1.05" vaporized=""/>
    <tripinfo id="asymmetric_NW.9" depart="83.00" departLane="edge_N_in_0" departPos="5.00" departSpeed="0.00" departDelay="65.00" arrival="263.00" arrivalLane="edge_W_out_0" arrivalPos="492.80" arrivalSpeed="12.44" duration="180.00" routeLength="989.63" waitingTime="49.00" waitingCount="3" stopTime="0.00" timeLoss="107.63" rerouteNo="0" devices="tripinfo_asymmetric_NW.9" vType="car" speedFactor="1.00" vaporized=""/>
    <tripinfo id="asymmetric_WN.1" depart="33.00" departLane="edge_W_in_0" departPos="5.00" departSpeed="0.00" departDelay="3.00" arrival="268.00" arrivalLane="edge_N_out_0" arrivalPos="492.80" arrivalSpeed="13.68" duration="235.00" routeLength="994.79" waitingTime="145.00" waitingCount="2" stopTime="0.00" timeLoss="162.10" rerouteNo="0" devices="tripinfo_asymmetric_WN.1" vType="car" speedFactor="1.01" vaporized=""/>
    <tripinfo id="asymmetric_WS.1" depart="36.00" departLane="edge_W_in_0" departPos="5.00" departSpeed="0.00" departDelay="6.00" arrival="270.00" arrivalLane="edge_S_out_0" arrivalPos="492.80" arrivalSpeed="13.70" duration="234.00" routeLength="989.63" waitingTime="141.00" waitingCount="2" stopTime="0.00" timeLoss="161.56" rerouteNo="0" devices="tripinfo_asymmetric_WS.1" vType="car" speedFactor="1.06" vaporized=""/>
    <tripinfo id="asymmetric_WE.2" depart="60.00" departLane="edge_W_in_0" departPos="5.00" departSpeed="0.00" departDelay="0.00" arrival="273.00" arrivalLane="edge_E_out_0" arrivalPos="492.80" arrivalSpeed="12.64" duration="213.00" routeLength="995.00" waitingTime="120.00" waitingCount="2" stopTime="0.00" timeLoss="140.78" rerouteNo="0" devices="tripinfo_asymmetric_WE.2" vType="car" speedFactor="1.07" vaporized=""/>
    <tripinfo id="asymmetric_WS.2" depart="65.00" departLane="edge_W_in_0" departPos="5.00" departSpeed="0.00" departDelay="5.00" arrival="277.00" arrivalLane="edge_S_out_0" arrivalPos="492.80" arrivalSpeed="13.29" duration="212.00" routeLength="989.63" waitingTime="113.00" waitingCount="2" stopTime="0.00" timeLoss="140.25" rerouteNo="0" devices="tripinfo_asymmetric_WS.2" vType="car" speedFactor="1.13" vaporized=""/>
    <tripinfo id="asymmetric_WN.2" depart="63.00" departLane="edge_W_in_0" departPos="5.00" departSpeed="0.00" departDelay="3.00" arrival="279.00" arrivalLane="edge_N_out_0" arrivalPos="492.80" arrivalSpeed="11.75" duration="216.00" routeLength="994.79" waitingTime="115.00" waitingCount="2" stopTime="0.00" timeLoss="136.36" rerouteNo="0" devices="tripinfo_asymmetric_WN.2" vType="car" speedFactor="0.91" vaporized=""/>
    <tripinfo id="asymmetric_SE.3" depart="94.00" departLane="edge_S_in_0" departPos="5.00" departSpeed="0.00" departDelay="4.00" arrival="288.00" arrivalLane="edge_E_out_0" arrivalPos="492.80" arrivalSpeed="13.19" duration="194.00" routeLength="989.63" waitingTime="99.00" waitingCount="2" stopTime="0.00" timeLoss="121.99" rerouteNo="0" devices="tripinfo_asymmetric_SE.3" vType="car" speedFactor="1.11" vaporized=""/>
    <tripinfo id="asymmetric_SW.2" depart="66.00" departLane="edge_S_in_0" departPos="5.00" departSpeed="0.00" departDelay="6.00" arrival="289.00" arrivalLane="edge_W_out_0" arrivalPos="492.80" arrivalSpeed="11.21" duration="223.00" routeLength="994.79" waitingTime="113.00" waitingCount="3" stopTime="0.00" timeLoss="140.82" rerouteNo="0" devices="tripinfo_asymmetric_SW.2" vType="car" speedFactor="0.88" vaporized=""/>
    <tripinfo id="asymmetric_SN.3" depart="92.00" departLane="edge_S_in_0" departPos="5.00" departSpeed="0.00" departDelay="2.00" arrival="290.00" arrivalLane="edge_N_out_0" arrivalPos="492.80" arrivalSpeed="11.63" duration="198.00" routeLength="995.00" waitingTime="100.00" waitingCount="2" stopTime="0.00" timeLoss="118.40" rerouteNo="0" devices="tripinfo_asymmetric_SN.3" vType="car" speedFactor="0.91" vaporized=""/>
    <tripinfo id="asymmetric_SW.3" depart="97.00" departLane="edge_S_in_0" departPos="5.00" departSpeed="0.00" departDelay="7.00" arrival="291.00" arrivalLane="edge_W_out_0" arrivalPos="492.80" arrivalSpeed="13.81" duration="194.00" routeLength="994.79" waitingTime="97.00" waitingCount="2" stopTime="0.00" timeLoss="121.61" rerouteNo="0" devices="tripinfo_asymmetric_SW.3" vType="car" speedFactor="1.15" vaporized=""/>
    <tripinfo id="asymmetric_NE.9" depart="85.00" departLane="edge_N_in_0" departPos="5.00" departSpeed="0.00" departDelay="67.00" arrival="297.00" arrivalLane="edge_E_out_0" arrivalPos="492.80" arrivalSpeed="12.74" duration="212.00" routeLength="994.79" waitingTime="73.00" waitingCount="4" stopTime="0.00" timeLoss="139.20" rerouteNo="0" devices="tripinfo_asymmetric_NE.9" vType="car" speedFactor="1.10" vaporized=""/>
    <tripinfo id="asymmetric_NS.10" depart="88.00" departLane="edge_N_in_0" departPos="5.00" departSpeed="0.00" departDelay="68.00" arrival="303.00" arrivalLane="edge_S_out_0" arrivalPos="492.80" arrivalSpeed="12.28" duration="215.00" routeLength="995.00" waitingTime="74.00" waitingCount="4" stopTime="0.00" timeLoss="134.72" rerouteNo="0" devices="tripinfo_asymmetric_NS.10" vType="car" speedFactor="0.90" vaporized=""/>
    <tripinfo id="asymmetric_NW.10" depart="91.00" departLane="edge_N_in_0" departPos="5.00" departSpeed="0.00" departDelay="71.00" arrival="304.00" arrivalLane="edge_W_out_0" arrivalPos="492.80" arrivalSpeed="12.57" duration="213.00" routeLength="989.63" waitingTime="70.00" waitingCount="4" stopTime="0.00" timeLoss="137.60" rerouteNo="0" devices="tripinfo_asymmetric_NW.10" vType="car" speedFactor="0.96" vaporized=""/>
    <tripinfo id="asymmetric_NE.10" depart="93.00" departLane="edge_N_in_0" departPos="5.00" departSpeed="0.00" departDelay="73.00" arrival="305.00" arrivalLane="edge_E_out_0" arrivalPos="492.80" arrivalSpeed="12.95" duration="212.00" routeLength="994.79" waitingTime="68.00" waitingCount="4" stopTime="0.00" timeLoss="139.17" rerouteNo="0" devices="tripinfo_asymmetric_NE.10" vType="car" speedFactor="1.02" vaporized=""/>