<?xml version="1.0" encoding="UTF-8"?>

<!-- generated on 2026-04-01T04:02:32.756673+05:30 by Eclipse SUMO sumo 1.25.0
<sumoConfiguration xmlns:xsi="http://www.w3.org/2001/XMLSchema-instance" xsi:noNamespaceSchemaLocation="http://sumo.dlr.de/xsd/sumoConfiguration.xsd">

    <input>
        <net-file value="E:\Projects\FedLearning-Robotics\sumo_config\hello.net.xml"/>
        <route-files value="E:\Projects\FedLearning-Robotics\sumo_config\hello.rou.xml"/>
        <additional-files value="E:\Projects\FedLearning-Robotics\sumo_config\hello.view.xml"/>
    </input>

    <output>
        <tripinfo-output value="E:\Projects\FedLearning-Robotics\sumo_config\tripinfo.xml"/>
    </output>

    <time>
        <begin value="0"/>
        <end value="500"/>
    </time>

    <report>
        <no-warnings value="true"/>
        <log value="E:\Projects\FedLearning-Robotics\sumo_config\sumo_debug.log"/>
        <error-log value="E:\Projects\FedLearning-Robotics\sumo_config\sumo_debug.log"/>
        <no-step-log value="true"/>
    </report>

    <traci_server>
        <remote-port value="56759"/>
    </traci_server>

    <gui_only>
        <quit-on-end value="true"/>
        <start value="true"/>
    </gui_only>

</sumoConfiguration>
-->

<tripinfos xmlns:xsi="http://www.w3.org/2001/XMLSchema-instance" xsi:noNamespaceSchemaLocation="http://sumo.dlr.de/xsd/tripinfo_file.xsd">
    <tripinfo id="asymmetric_EW.0" depart="0.00" departLane="edge_E_in_0" departPos="5.00" departSpeed="0.00" departDelay="0.00" arrival="80.00" arrivalLane="edge_W_out_0" arrivalPos="492.80" arrivalSpeed="12.85" duration="80.00" routeLength="995.00" waitingTime="0.00" waitingCount="0" stopTime="0.00" timeLoss="8.10" rerouteNo="0" devices="tripinfo_asymmetric_EW.0" vType="car" speedFactor="1.01" vaporized=""/>
    <tripinfo id="asymmetric_EN.0" depart="3.00" departLane="edge_E_in_0" departPos="5.00" departSpeed="0.00" departDelay="3.00" arrival="91.00" arrivalLane="edge_N_out_0" arrivalPos="492.80" arrivalSpeed="11.30" duration="88.00" routeLength="989.63" waitingTime="0.00" waitingCount="0" stopTime="0.00" timeLoss="7.86" rerouteNo="0" devices="tripinfo_asymmetric_EN.0" vType="car" speedFactor="0.90" vaporized=""/>
    <tripinfo id="asymmetric_WE.0" depart="0.00" departLane="edge_W_in_0" departPos="5.00" departSpeed="0.00" departDelay="0.00" arrival="93.00" arrivalLane="edge_E_out_0" arrivalPos="492.80" arrivalSpeed="12.85" duration="93.00" routeLength="995.00" waitingTime="10.00" waitingCount="1" stopTime="0.00" timeLoss="20.75" rerouteNo="0" devices="tripinfo_asymmetric_WE.0" vType="car" speedFactor="1.09" vaporized=""/>
    <tripinfo id="asymmetric_WN.0" depart="3.00" departLane="edge_W_in_0" departPos="5.00" departSpeed="0.00" departDelay="3.00" arrival="98.00" arrivalLane="edge_N_out_0" arrivalPos="492.80" arrivalSpeed="12.57" duration="95.00" routeLength="994.79" waitingTime="5.00" waitingCount="1" stopTime="0.00" timeLoss="16.58" rerouteNo="0" devices="tripinfo_asymmetric_WN.0" vType="car" speedFactor="0.93" vaporized=""/>
    <tripinfo id="asymmetric_WS.0" depart="6.00" departLane="edge_W_in_0" departPos="5.00" departSpeed="0.00" departDelay="6.00" arrival="98.00" arrivalLane="edge_S_out_0" arrivalPos="492.80" arrivalSpeed="13.28" duration="92.00" routeLength="989.63" waitingTime="4.00" waitingCount="1" stopTime="0.00" timeLoss="19.45" rerouteNo="0" devices="tripinfo_asymmetric_WS.0" vType="car" speedFactor="1.01" vaporized=""/>
    <tripinfo id="asymmetric_SE.0" depart="2.00" departLane="edge_S_in_0" departPos="5.00" departSpeed="0.00" departDelay="2.00" arrival="108.00" arrivalLane="edge_E_out_0" arrivalPos="492.80" arrivalSpeed="13.38" duration="106.00" routeLength="989.63" waitingTime="16.00" waitingCount="1" stopTime="0.00" timeLoss="33.89" rerouteNo="0" devices="tripinfo_asymmetric_SE.0" vType="car" speedFactor="1.12" vaporized=""/>
    <tripinfo id="asymmetric_SN.0" depart="0.00" departLane="edge_S_in_0" departPos="5.00" departSpeed="0.00" departDelay="0.00" arrival="111.00" arrivalLane="edge_N_out_0" arrivalPos="492.80" arrivalSpeed="11.35" duration="111.00" routeLength="995.00" waitingTime="18.00" waitingCount="1" stopTime="0.00" timeLoss="29.35" rerouteNo="0" devices="tripinfo_asymmetric_SN.0" vType="car" speedFactor="0.89" vaporized=""/>
    <tripinfo id="asymmetric_SN.1" depart="30.00" departLane="edge_S_in_0" departPos="5.00" departSpeed="0.00" departDelay="0.00" arrival="113.00" arrivalLane="edge_N_out_0" arrivalPos="492.80" arrivalSpeed="12.59" duration="83.00" routeLength="995.00" waitingTime="0.00" waitingCount="0" stopTime="0.00" timeLoss="10.47" rerouteNo="0" devices="tripinfo_asymmetric_SN.1" vType="car" speedFactor="1.09" vaporized=""/>
    <tripinfo id="asymmetric_SW.0" depart="5.00" departLane="edge_S_in_0" departPos="5.00" departSpeed="0.00" departDelay="5.00" arrival="114.00" arrivalLane="edge_W_out_0" arrivalPos="492.80" arrivalSpeed="12.50" duration="109.00" routeLength="994.79" waitingTime="16.00" waitingCount="1" stopTime="0.00" timeLoss="31.41" rerouteNo="0" devices="tripinfo_asymmetric_SW.0" vType="car" speedFactor="0.94" vaporized=""/>
    <tripinfo id="asymmetric_NE.0" depart="6.00" departLane="edge_N_in_0" departPos="5.00" departSpeed="0.00" departDelay="6.00" arrival="124.00" arrivalLane="edge_E_out_0" arrivalPos="492.80" arrivalSpeed="13.76" duration="118.00" routeLength="994.79" waitingTime="25.00" waitingCount="1" stopTime="0.00" timeLoss="45.04" rerouteNo="0" devices="tripinfo_asymmetric_NE.0" vType="car" speedFactor="1.04" vaporized=""/>
    <tripinfo id="asymmetric_NS.0" depart="0.00" departLane="edge_N_in_0" departPos="5.00" departSpeed="0.00" departDelay="0.00" arrival="125.00" arrivalLane="edge_S_out_0" arrivalPos="492.80" arrivalSpeed="10.41" duration="125.00" routeLength="995.00" waitingTime="28.00" waitingCount="1" stopTime="0.00" timeLoss="39.68" rerouteNo="0" devices="tripinfo_asymmetric_NS.0" vType="car" speedFactor="0.84" vaporized=""/>
    <tripinfo id="asymmetric_NW.0" depart="3.00" departLane="edge_N_in_0" departPos="5.00" departSpeed="0.00" departDelay="3.00" arrival="125.00" arrivalLane="edge_W_out_0" arrivalPos="492.80" arrivalSpeed="12.15" duration="122.00" routeLength="989.63" waitingTime="28.00" waitingCount="1" stopTime="0.00" timeLoss="42.85" rerouteNo="0" devices="tripinfo_asymmetric_NW.0" vType="car" speedFactor="0.92" vaporized=""/>
    <tripinfo id="asymmetric_NS.1" depart="8.00" departLane="edge_N_in_0" departPos="5.00" departSpeed="0.00" departDelay="6.00" arrival="127.00" arrivalLane="edge_S_out_0" arrivalPos="492.80" arrivalSpeed="13.79" duration="119.00" routeLength="995.00" waitingTime="25.00" waitingCount="1" stopTime="0.00" timeLoss="46.70" rerouteNo="0" devices="tripinfo_asymmetric_NS.1" vType="car" speedFactor="1.03" vaporized=""/>
    <tripinfo id="asymmetric_WE.1" depart="30.00" departLane="edge_W_in_0" departPos="5.00" departSpeed="0.00" departDelay="0.00" arrival="133.00" arrivalLane="edge_E_out_0" arrivalPos="492.80" arrivalSpeed="13.63" duration="103.00" routeLength="995.00" waitingTime="18.00" waitingCount="1" stopTime="0.00" timeLoss="30.60" rerouteNo="0" devices="tripinfo_asymmetric_WE.1" vType="car" speedFactor="1.02" vaporized=""/>
    <tripinfo id="asymmetric_WN.1" depart="33.00" departLane="edge_W_in_0" departPos="5.00" departSpeed="0.00" departDelay="3.00" arrival="135.00" arrivalLane="edge_N_out_0" arrivalPos="492.80" arrivalSpeed="12.50" duration="102.00" routeLength="994.79" waitingTime="17.00" waitingCount="1" stopTime="0.00" timeLoss="29.11" rerouteNo="0" devices="tripinfo_asymmetric_WN.1" vType="car" speedFactor="1.01" vaporized=""/>
    <tripinfo id="asymmetric_WS.1" depart="36.00" departLane="edge_W_in_0" departPos="5.00" departSpeed="0.00" departDelay="6.00" arrival="137.00" arrivalLane="edge_S_out_0" arrivalPos="492.80" arrivalSpeed="12.73" duration="101.00" routeLength="989.63" waitingTime="15.00" waitingCount="1" stopTime="0.00" timeLoss="29.03" rerouteNo="0" devices="tripinfo_asymmetric_WS.1" vType="car" speedFactor="1.06" vaporized=""/>
    <tripinfo id="asymmetric_WE.2" depart="60.00" departLane="edge_W_in_0" departPos="5.00" departSpeed="0.00" departDelay="0.00" arrival="140.00" arrivalLane="edge_E_out_0" arrivalPos="492.80" arrivalSpeed="12.90" duration="80.00" routeLength="995.00" waitingTime="0.00" waitingCount="0" stopTime="0.00" timeLoss="7.99" rerouteNo="0" devices="tripinfo_asymmetric_WE.2" vType="car" speedFactor="1.07" vaporized=""/>
    <tripinfo id="asymmetric_NE.1" depart="15.00" departLane="edge_N_in_0" departPos="5.00" departSpeed="0.00" departDelay="13.00" arrival="148.00" arrivalLane="edge_E_out_0" arrivalPos="492.80" arrivalSpeed="13.41" duration="133.00" routeLength="994.79" waitingTime="39.00" waitingCount="2" stopTime="0.00" timeLoss="60.53" rerouteNo="0" devices="tripinfo_asymmetric_NE.1" vType="car" speedFactor="1.01" vaporized=""/>
    <tripinfo id="asymmetric_NW.1" depart="12.00" departLane="edge_N_in_0" departPos="5.00" departSpeed="0.00" departDelay="10.00" arrival="150.00" arrivalLane="edge_W_out_0" arrivalPos="492.80" arrivalSpeed="11.97" duration="138.00" routeLength="989.63" waitingTime="41.00" waitingCount="2" stopTime="0.00" timeLoss="57.38" rerouteNo="0" devices="tripinfo_asymmetric_NW.1" vType="car" speedFactor="0.89" vaporized=""/>
    <tripinfo id="asymmetric_NW.2" depart="20.00" departLane="edge_N_in_0" departPos="5.00" departSpeed="0.00" departDelay="16.00" arrival="154.00" arrivalLane="edge_W_out_0" arrivalPos="492.80" arrivalSpeed="13.58" duration="134.00" routeLength="989.63" waitingTime="35.00" waitingCount="2" stopTime="0.00" timeLoss="61.53" rerouteNo="0" devices="tripinfo_asymmetric_NW.2" vType="car" speedFactor="1.03" vaporized=""/>
    <tripinfo id="asymmetric_NS.2" depart="17.00" departLane="edge_N_in_0" departPos="5.00" departSpeed="0.00" departDelay="13.00" arrival="156.00" arrivalLane="edge_S_out_0" arrivalPos="492.80" arrivalSpeed="10.87" duration="139.00" routeLength="995.00" waitingTime="36.00" waitingCount="2" stopTime="0.00" timeLoss="56.53" rerouteNo="0" devices="tripinfo_asymmetric_NS.2" vType="car" speedFactor="0.87" vaporized=""/>
    <tripinfo id="asymmetric_SE.1" depart="33.00" departLane="edge_S_in_0" departPos="5.00" departSpeed="0.00" departDelay="3.00" arrival="159.00" arrivalLane="edge_E_out_0" arrivalPos="492.80" arrivalSpeed="13.54" duration="126.00" routeLength="989.63" waitingTime="41.00" waitingCount="1" stopTime="0.00" timeLoss="52.45" rerouteNo="0" devices="tripinfo_asymmetric_SE.1" vType="car" speedFactor="0.98" vaporized=""/>
    <tripinfo id="asymmetric_SN.2" depart="60.00" departLane="edge_S_in_0" departPos="5.00" departSpeed="0.00" departDelay="0.00" arrival="163.00" arrivalLane="edge_N_out_0" arrivalPos="492.80" arrivalSpeed="12.83" duration="103.00" routeLength="995.00" waitingTime="18.00" waitingCount="1" stopTime="0.00" timeLoss="31.29" rerouteNo="0" devices="tripinfo_asymmetric_SN.2" vType="car" speedFactor="1.04" vaporized=""/>
    <tripinfo id="asymmetric_SE.2" depart="63.00" departLane="edge_S_in_0" departPos="5.00" departSpeed="0.00" departDelay="3.00" arrival="165.00" arrivalLane="edge_E_out_0" arrivalPos="492.80" arrivalSpeed="13.29" duration="102.00" routeLength="989.63" waitingTime="16.00" waitingCount="1" stopTime="0.00" timeLoss="30.06" rerouteNo="0" devices="tripinfo_asymmetric_SE.2" vType="car" speedFactor="1.18" vaporized=""/>
    <tripinfo id="asymmetric_SW.1" depart="35.00" departLane="edge_S_in_0" departPos="5.00" departSpeed="0.00" departDelay="5.00" arrival="169.00" arrivalLane="edge_W_out_0" arrivalPos="492.80" arrivalSpeed="10.38" duration="134.00" routeLength="994.79" waitingTime="33.00" waitingCount="1" stopTime="0.00" timeLoss="46.56" rerouteNo="0" devices="tripinfo_asymmetric_SW.1" vType="car" speedFactor="0.83" vaporized=""/>
    <tripinfo id="asymmetric_NE.2" depart="23.00" departLane="edge_N_in_0" departPos="5.00" departSpeed="0.00" departDelay="19.00" arrival="171.00" arrivalLane="edge_E_out_0" arrivalPos="492.80" arrivalSpeed="13.07" duration="148.00" routeLength="994.79" waitingTime="46.00" waitingCount="3" stopTime="0.00" timeLoss="75.40" rerouteNo="0" devices="tripinfo_asymmetric_NE.2" vType="car" speedFactor="1.13" vaporized=""/>
    <tripinfo id="asymmetric_NW.3" depart="29.00" departLane="edge_N_in_0" departPos="5.00" departSpeed="0.00" departDelay="23.00" arrival="176.00" arrivalLane="edge_W_out_0" arrivalPos="492.80" arrivalSpeed="13.27" duration="147.00" routeLength="989.63" waitingTime="40.00" waitingCount="3" stopTime="0.00" timeLoss="74.46" rerouteNo="0" devices="tripinfo_asymmetric_NW.3" vType="car" speedFactor="1.15" vaporized=""/>
    <tripinfo id="asymmetric_NS.3" depart="26.00" departLane="edge_N_in_0" departPos="5.00" departSpeed="0.00" departDelay="20.00" arrival="178.00" arrivalLane="edge_S_out_0" arrivalPos="492.80" arrivalSpeed="12.32" duration="152.00" routeLength="995.00" waitingTime="42.00" waitingCount="3" stopTime="0.00" timeLoss="70.99" rerouteNo="0" devices="tripinfo_asymmetric_NS.3" vType="car" speedFactor="0.89" vaporized=""/>
    <tripinfo id="asymmetric_NE.3" depart="32.00" departLane="edge_N_in_0" departPos="5.00" departSpeed="0.00" departDelay="26.00" arrival="179.00" arrivalLane="edge_E_out_0" arrivalPos="492.80" arrivalSpeed="13.59" duration="147.00" routeLength="994.79" waitingTime="38.00" waitingCount="3" stopTime="0.00" timeLoss="73.93" rerouteNo="0" devices="tripinfo_asymmetric_NE.3" vType="car" speedFactor="1.12" vaporized=""/>
    <tripinfo id="asymmetric_NS.4" depart="35.00" departLane="edge_N_in_0" departPos="5.00" departSpeed="0.00" departDelay="27.00" arrival="180.00" arrivalLane="edge_S_out_0" arrivalPos="492.80" arrivalSpeed="12.34" duration="145.00" routeLength="995.00" waitingTime="36.00" waitingCount="3" stopTime="0.00" timeLoss="72.70" rerouteNo="0" devices="tripinfo_asymmetric_NS.4" vType="car" speedFactor="0.99" vaporized=""/>
    <tripinfo id="asymmetric_NW.4" depart="38.00" departLane="edge_N_in_0" departPos="5.00" departSpeed="0.00" departDelay="30.00" arrival="185.00" arrivalLane="edge_W_out_0" arrivalPos="492.80" arrivalSpeed="13.45" duration="147.00" routeLength="989.63" waitingTime="35.00" waitingCount="3" stopTime="0.00" timeLoss="71.57" rerouteNo="0" devices="tripinfo_asymmetric_NW.4" vType="car" speedFactor="0.97" vaporized=""/>
    <tripinfo id="asymmetric_SE.3" depart="93.00" departLane="edge_S_in_0" departPos="5.00" departSpeed="0.00" departDelay="3.00" arrival="192.00" arrivalLane="edge_E_out_0" arrivalPos="492.80" arrivalSpeed="12.47" duration="99.00" routeLength="989.63" waitingTime="11.00" waitingCount="1" stopTime="0.00" timeLoss="26.93" rerouteNo="0" devices="tripinfo_asymmetric_SE.3" vType="car" speedFactor="1.11" vaporized=""/>
    <tripinfo id="asymmetric_SN.3" depart="90.00" departLane="edge_S_in_0" departPos="5.00" departSpeed="0.00" departDelay="0.00" arrival="193.00" arrivalLane="edge_N_out_0" arrivalPos="492.80" arrivalSpeed="12.02" duration="103.00" routeLength="995.00" waitingTime="12.00" waitingCount="1" stopTime="0.00" timeLoss="24.17" rerouteNo="0" devices="tripinfo_asymmetric_SN.3" vType="car" speedFactor="0.91" vaporized=""/>
    <tripinfo id="asymmetric_SW.2" depart="66.00" departLane="edge_S_in_0" departPos="5.00" departSpeed="0.00" departDelay="6.00" arrival="194.00" arrivalLane="edge_W_out_0" arrivalPos="492.80" arrivalSpeed="11.28" duration="128.00" routeLength="994.79" waitingTime="28.00" waitingCount="2" stopTime="0.00" timeLoss="45.13" rerouteNo="0" devices="tripinfo_asymmetric_SW.2" vType="car" speedFactor="0.88" vaporized=""/>
    <tripinfo id="asymmetric_SW.3" depart="98.00" departLane="edge_S_in_0" departPos="5.00" departSpeed="0.00" departDelay="8.00" arrival="196.00" arrivalLane="edge_W_out_0" arrivalPos="492.80" arrivalSpeed="13.48" duration="98.00" routeLength="994.79" waitingTime="8.00" waitingCount="1" stopTime="0.00" timeLoss="25.19" rerouteNo="0" devices="tripinfo_asymmetric_SW.3" vType="car" speedFactor="1.15" vaporized=""/>
    <tripinfo id="asymmetric_NE.4" depart="41.00" departLane="edge_N_in_0" departPos="5.00" departSpeed="0.00" departDelay="33.00" arrival="201.00" arrivalLane="edge_E_out_0" arrivalPos="492.80" arrivalSpeed="13.09" duration="160.00" routeLength="994.79" waitingTime="45.00" waitingCount="4" stopTime="0.00" timeLoss="87.48" rerouteNo="0" devices="tripinfo_asymmetric_NE.4" vType="car" speedFactor="1.02" vaporized=""/>
    <tripinfo id="asymmetric_NS.5" depart="44.00" departLane="edge_N_in_0" departPos="5.00" departSpeed="0.00" departDelay="34.00" arrival="205.00" arrivalLane="edge_S_out_0" arrivalPos="492.80" arrivalSpeed="11.81" duration="161.00" routeLength="995.00" waitingTime="40.00" waitingCount="4" stopTime="0.00" timeLoss="84.65" rerouteNo="0" devices="tripinfo_asymmetric_NS.5" vType="car" speedFactor="0.94" vaporized=""/>
    <tripinfo id="asymmetric_NW.5" depart="47.00" departLane="edge_N_in_0" departPos="5.00" departSpeed="0.00" departDelay="37.00" arrival="205.00" arrivalLane="edge_W_out_0" arrivalPos="492.80" arrivalSpeed="12.85" duration="158.00" routeLength="989.63" waitingTime="36.00" waitingCount="4" stopTime="0.00" timeLoss="85.96" rerouteNo="0" devices="tripinfo_asymmetric_NW.5" vType="car" speedFactor="1.10" vaporized=""/>
    <tripinfo id="asymmetric_NS.6" depart="53.00" departLane="edge_N_in_0" departPos="5.00" departSpeed="0.00" departDelay="41.00" arrival="210.00" arrivalLane="edge_S_out_0" arrivalPos="492.80" arrivalSpeed="13.77" duration="157.00" routeLength="995.00" waitingTime="31.00" waitingCount="4" stopTime="0.00" timeLoss="84.79" rerouteNo="0" devices="tripinfo_asymmetric_NS.6" vType="car" speedFactor="1.03" vaporized=""/>
    <tripinfo id="asymmetric_NW.6" depart="56.00" departLane="edge_N_in_0" departPos="5.00" departSpeed="0.00" departDelay="44.00" arrival="213.00" arrivalLane="edge_W_out_0" arrivalPos="492.80" arrivalSpeed="13.34" duration="157.00" routeLength="989.63" waitingTime="30.00" waitingCount="4" stopTime="0.00" timeLoss="84.63" rerouteNo="0" devices="tripinfo_asymmetric_NW.6" vType="car" speedFactor="1.07" vaporized=""/>
    <tripinfo id="asymmetric_NE.5" depart="49.00" departLane="edge_N_in_0" departPos="5.00" departSpeed="0.00" departDelay="39.00" arrival="216.00" arrivalLane="edge_E_out_0" arrivalPos="492.80" arrivalSpeed="11.19" duration="167.00" routeLength="994.79" waitingTime="33.00" waitingCount="4" stopTime="0.00" timeLoss="79.80" rerouteNo="0" devices="tripinfo_asymmetric_NE.5" vType="car" speedFactor="0.83" vaporized=""/>
    <tripinfo id="asymmetric_SN.4" depart="120.00" departLane="edge_S_in_0" departPos="5.00" departSpeed="0.00" departDelay="0.00" arrival="217.00" arrivalLane="edge_N_out_0" arrivalPos="492.80" arrivalSpeed="12.59" duration="97.00" routeLength="995.00" waitingTime="13.00" waitingCount="1" stopTime="0.00" timeLoss="25.20" rerouteNo="0" devices="tripinfo_asymmetric_SN.4" vType="car" speedFactor="1.16" vaporized=""/>
    <tripinfo id="asymmetric_SE.4" depart="125.00" departLane="edge_S_in_0" departPos="5.00" departSpeed="0.00" departDelay="5.00" arrival="222.00" arrivalLane="edge_E_out_0" arrivalPos="492.80" arrivalSpeed="12.82" duration="97.00" routeLength="989.63" waitingTime="9.00" waitingCount="1" stopTime="0.00" timeLoss="21.11" rerouteNo="0" devices="tripinfo_asymmetric_SE.4" vType="car" speedFactor="0.96" vaporized=""/>
    <tripinfo id="asymmetric_SW.4" depart="127.00" departLane="edge_S_in_0" departPos="5.00" departSpeed="0.00" departDelay="7.00" arrival="227.00" arrivalLane="edge_W_out_0" arrivalPos="492.80" arrivalSpeed="11.53" duration="100.00" routeLength="994.79" waitingTime="6.00" waitingCount="1" stopTime="0.00" timeLoss="19.75" rerouteNo="0" devices="tripinfo_asymmetric_SW.4" vType="car" speedFactor="0.90" vaporized=""/>
    <tripinfo id="asymmetric_NE.6" depart="59.00" departLane="edge_N_in_0" departPos="5.00" departSpeed="0.00" departDelay="47.00" arrival="231.00" arrivalLane="edge_E_out_0" arrivalPos="492.80" arrivalSpeed="13.87" duration="172.00" routeLength="994.79" waitingTime="38.00" waitingCount="5" stopTime="0.00" timeLoss="99.34" rerouteNo="0" devices="tripinfo_asymmetric_NE.6" vType="car" speedFactor="1.04" vaporized=""/>
    <tripinfo id="asymmetric_NE.7" depart="68.00" departLane="edge_N_in_0" departPos="5.00" departSpeed="0.00" departDelay="54.00" arrival="239.00" arrivalLane="edge_E_out_0" arrivalPos="492.80" arrivalSpeed="12.88" duration="171.00" routeLength="994.79" waitingTime="26.00" waitingCount="4" stopTime="0.00" timeLoss="98.28" rerouteNo="0" devices="tripinfo_asymmetric_NE.7" vType="car" speedFactor="1.02" vaporized=""/>
    <tripinfo id="asymmetric_NW.7" depart="65.00" departLane="edge_N_in_0" departPos="5.00" departSpeed="0.00" departDelay="51.00" arrival="241.00" arrivalLane="edge_W_out_0" arrivalPos="492.80" arrivalSpeed="11.65" duration="176.00" routeLength="989.63" waitingTime="30.00" waitingCount="4" stopTime="0.00" timeLoss="95.05" rerouteNo="0" devices="tripinfo_asymmetric_NW.7" vType="car" speedFactor="0.90" vaporized=""/>
    <tripinfo id="asymmetric_NS.7" depart="62.00" departLane="edge_N_in_0" departPos="5.00" departSpeed="0.00" departDelay="48.00" arrival="244.00" arrivalLane="edge_S_out_0" arrivalPos="492.80" arrivalSpeed="10.40" duration="182.00" routeLength="995.00" waitingTime="35.00" waitingCount="5" stopTime="0.00" timeLoss="88.79" rerouteNo="0" devices="tripinfo_asymmetric_NS.7" vType="car" speedFactor="0.77" vaporized=""/>
    <tripinfo id="asymmetric_WS.2" depart="65.00" departLane="edge_W_in_0" departPos="5.00" departSpeed="0.00" departDelay="5.00" arrival="246.00" arrivalLane="edge_S_out_0" arrivalPos="492.80" arrivalSpeed="13.28" duration="181.00" routeLength="989.63" waitingTime="92.00" waitingCount="1" stopTime="0.00" timeLoss="109.02" rerouteNo="0" devices="tripinfo_asymmetric_WS.2" vType="car" speedFactor="1.13" vaporized=""/>
    <tripinfo id="asymmetric_WN.2" depart="62.00" departLane="edge_W_in_0" departPos="5.00" departSpeed="0.00" departDelay="2.00" arrival="248.00" arrivalLane="edge_N_out_0" arrivalPos="492.80" arrivalSpeed="11.53" duration="186.00" routeLength="994.79" waitingTime="95.00" waitingCount="1" stopTime="0.00" timeLoss="106.21" rerouteNo="0" devices="tripinfo_asymmetric_WN.2" vType="car" speedFactor="0.91" vaporized=""/>
    <tripinfo id="asymmetric_WE.3" depart="90.00" departLane="edge_W_in_0" departPos="5.00" departSpeed="0.00" departDelay="0.00" arrival="248.00" arrivalLane="edge_E_out_0" arrivalPos="492.80" arrivalSpeed="12.90" duration="158.00" routeLength="995.00" waitingTime="73.00" waitingCount="1" stopTime="0.00" timeLoss="85.76" rerouteNo="0" devices="tripinfo_asymmetric_WE.3" vType="car" speedFactor="1.06" vaporized=""/>
    <tripinfo id="asymmetric_WN.3" depart="93.00" departLane="edge_W_in_0" departPos="5.00" departSpeed="0.00" departDelay="3.00" arrival="252.00" arrivalLane="edge_N_out_0" arrivalPos="492.80" arrivalSpeed="13.38" duration="159.00" routeLength="994.79" waitingTime="71.00" waitingCount="1" stopTime="0.00" timeLoss="85.97" rerouteNo="0" devices="tripinfo_asymmetric_WN.3" vType="car" speedFactor="1.04" vaporized=""/>
    <tripinfo id="asymmetric_NW.8" depart="73.00" departLane="edge_N_in_0" departPos="5.00" departSpeed="0.00" departDelay="57.00" arrival="259.00" arrivalLane="edge_W_out_0" arrivalPos="492.80" arrivalSpeed="12.79" duration="186.00" routeLength="989.63" waitingTime="34.00" waitingCount="5" stopTime="0.00" timeLoss="113.84" rerouteNo="0" devices="tripinfo_asymmetric_NW.8" vType="car" speedFactor="1.06" vaporized=""/>
    <tripinfo id="asymmetric_NE.8" depart="76.00" departLane="edge_N_in_0" departPos="5.00" departSpeed="0.00" departDelay="60.00" arrival="261.00" arrivalLane="edge_E_out_0" arrivalPos="492.80" arrivalSpeed="13.20" duration="185.00" routeLength="994.79" waitingTime="31.00" waitingCount="6" stopTime="0.00" timeLoss="112.74" rerouteNo="0" devices="tripinfo_asymmetric_NE.8" vType="car" speedFactor="1.17" vaporized=""/>
    <tripinfo id="asymmetric_NS.8" depart="70.00" departLane="edge_N_in_0" departPos="5.00" departSpeed="0.00" departDelay="54.00" arrival="263.00" arrivalLane="edge_S_out_0" arrivalPos="492.80" arrivalSpeed="10.79" duration="193.00" routeLength="995.00" waitingTime="38.00" waitingCount="5" stopTime="0.00" timeLoss="110.73" rerouteNo="0" devices="tripinfo_asymmetric_NS.8" vType="car" speedFactor="0.88" vaporized=""/>
    <tripinfo id="asymmetric_NS.9" depart="78.00" departLane="edge_N_in_0" departPos="5.00" departSpeed="0.00" departDelay="60.00" arrival="265.00" arrivalLane="edge_S_out_0" arrivalPos="492.80" arrivalSpeed="13.08" duration="187.00" routeLength="995.00" waitingTime="30.00" waitingCount="5" stopTime="0.00" timeLoss="114.54" rerouteNo="0" devices="tripinfo_asymmetric_NS.9" vType="car" speedFactor="1.05" vaporized=""/>
    <tripinfo id="asymmetric_ES.0" depart="5.00" departLane="edge_E_in_0" departPos="5.00" departSpeed="0.00" departDelay="5.00" arrival="270.00" arrivalLane="edge_S_out_0" arrivalPos="492.80" arrivalSpeed="12.94" duration="265.00" routeLength="994.79" waitingTime="177.00" waitingCount="1" stopTime="0.00" timeLoss="192.02" rerouteNo="0" devices="tripinfo_asymmetric_ES.0" vType="car" speedFactor="1.08" vaporized=""/>
    <tripinfo id="asymmetric_EW.1" depart="30.00" departLane="edge_E_in_0" departPos="5.00" departSpeed="0.00" departDelay="0.00" arrival="275.00" arrivalLane="edge_W_out_0" arrivalPos="492.80" arrivalSpeed="11.52" duration="245.00" routeLength="995.00" waitingTime="154.00" waitingCount="1" stopTime="0.00" timeLoss="165.05" rerouteNo="0" devices="tripinfo_asymmetric_EW.1" vType="car" speedFactor="0.90" vaporized=""/>
    <tripinfo id="asymmetric_EN.1" depart="33.00" departLane="edge_E_in_0" departPos="5.00" departSpeed="0.00" departDelay="3.00" arrival="275.00" arrivalLane="edge_N_out_0" arrivalPos="492.80" arrivalSpeed="12.80" duration="242.00" routeLength="989.63" waitingTime="152.00" waitingCount="1" stopTime="0.00" timeLoss="168.15" rerouteNo="0" devices="tripinfo_asymmetric_EN.1" vType="car" speedFactor="0.98" vaporized=""/>
    <tripinfo id="asymmetric_ES.1" depart="35.00" departLane="edge_E_in_0" departPos="5.00" departSpeed="0.00" departDelay="5.00" arrival="277.00" arrivalLane="edge_S_out_0" arrivalPos="492.80" arrivalSpeed="13.19" duration="242.00" routeLength="994.79" waitingTime="152.00" waitingCount="1" stopTime="0.00" timeLoss="168.94" rerouteNo="0" devices="tripinfo_asymmetric_ES.1" vType="car" speedFactor="1.05" vaporized=""/>
    <tripinfo id="asymmetric_SN.5" depart="150.00" departLane="edge_S_in_0" departPos="5.00" departSpeed="0.00" departDelay="0.00" arrival="283.00" arrivalLane="edge_N_out_0" arrivalPos="492.80" arrivalSpeed="13.08" duration="133.00" routeLength="995.00" waitingTime="49.00" waitingCount="1" stopTime="0.00" timeLoss="60.50" rerouteNo="0" devices="tripinfo_asymmetric_SN.5" vType="car" speedFactor="1.11" vaporized=""/>
    <tripinfo id="asymmetric_SW.5" depart="156.00" departLane="edge_S_in_0" departPos="5.00" departSpeed="0.00" departDelay="6.00" arrival="290.00" arrivalLane="edge_W_out_0" arrivalPos="492.80" arrivalSpeed="12.37" duration="134.00" routeLength="994.79" waitingTime="38.00" waitingCount="1" stopTime="0.00" timeLoss="58.14" rerouteNo="0" devices="tripinfo_asymmetric_SW.5" vType="car" speedFactor="0.96" vaporized=""/>
    <tripinfo id="asymmetric_SN.6" depart="180.00" departLane="edge_S_in_0" departPos="5.00" departSpeed="0.00" departDelay="0.00" arrival="290.00" arrivalLane="edge_N_out_0" arrivalPos="492.80" arrivalSpeed="12.68" duration="110.00" routeLength="995.00" waitingTime="23.00" waitingCount="1" stopTime="0.00" timeLoss="36.13" rerouteNo="0" devices="tripinfo_asymmetric_SN.6" vType="car" speedFactor="0.97" vaporized=""/>
    <tripinfo id="asymmetric_SE.5" depart="153.00" departLane="edge_S_in_0" departPos="5.00" departSpeed="0.00" departDelay="3.00" arrival="295.00" arrivalLane="edge_E_out_0" arrivalPos="492.80" arrivalSpeed="11.13" duration="142.00" routeLength="989.63" waitingTime="39.00" waitingCount="1" stopTime="0.00" timeLoss="52.56" rerouteNo="0" devices="tripinfo_asymmetric_SE.5" vType="car" speedFactor="0.81" vaporized=""/>
    <tripinfo id="asymmetric_NW.9" depart="81.00" departLane="edge_N_in_0" departPos="5.00" departSpeed="0.00" departDelay="63.00" arrival="296.00" arrivalLane="edge_W_out_0" arrivalPos="492.80" arrivalSpeed="12.57" duration="215.00" routeLength="989.63" waitingTime="52.00" waitingCount="8" stopTime="0.00" timeLoss="142.53" rerouteNo="0" devices="tripinfo_asymmetric_NW.9" vType="car" speedFactor="1.00" vaporized=""/>
    <tripinfo id="asymmetric_NE.9" depart="84.00" departLane="edge_N_in_0" departPos="5.00" departSpeed="0.00" departDelay="66.00" arrival="298.00" arrivalLane="edge_E_out_0" arrivalPos="492.80" arrivalSpeed="13.06" duration="214.00" routeLength="994.79" waitingTime="51.00" waitingCount="6" stopTime="0.00" timeLoss="141.52" rerouteNo="0" devices="tripinfo_asymmetric_NE.9" vType="car" speedFactor="1.10" vaporized=""/>
    <tripinfo id="asymmetric_NS.10" depart="87.00" departLane="edge_N_in_0" departPos="5.00" departSpeed="0.00" departDelay="67.00" arrival="305.00" arrivalLane="edge_S_out_0" arrivalPos="492.80" arrivalSpeed="11.82" duration="218.00" routeLength="995.00" waitingTime="49.00" waitingCount="6" stopTime="0.00" timeLoss="137.40" rerouteNo="0" devices="tripinfo_asymmetric_NS.10" vType="car" speedFactor="0.90" vaporized=""/>
    <tripinfo id="asymmetric_NW.10" depart="91.00" departLane="edge_N_in_0" departPos="5.00" departSpeed="0.00" departDelay="71.00" arrival="305.00" arrivalLane="edge_W_out_0" arrivalPos="492.80" arrivalSpeed="12.43" duration="214.00" routeLength="989.63" waitingTime="44.00" waitingCount="7" stopTime="0.00" timeLoss="139.34" rerouteNo="0" devices="tripinfo_asymmetric_NW.10" vType="car" speedFactor="0.96" vaporized=""/>