<?xml version="1.0" encoding="UTF-8"?>

<!-- generated on 2026-04-15T08:18:51.232663+05:30 by Eclipse SUMO sumo 1.25.0
<sumoConfiguration xmlns:xsi="http://www.w3.org/2001/XMLSchema-instance" xsi:noNamespaceSchemaLocation="http://sumo.dlr.de/xsd/sumoConfiguration.xsd">

    <input>
        <net-file value="C:\Users\gathi\projects\FedTraffic-RL\sumo_config\hello.net.xml"/>
        <route-files value="C:\Users\gathi\projects\FedTraffic-RL\sumo_config\hello.rou.xml"/>
        <additional-files value="C:\Users\gathi\projects\FedTraffic-RL\sumo_config\hello.view.xml"/>
    </input>

    <output>
        <tripinfo-output value="C:\Users\gathi\projects\FedTraffic-RL\sumo_config\tripinfo.xml"/>
    </output>

    <time>
        <begin value="0"/>
        <end value="500"/>
    </time>

    <report>
        <no-warnings value="true"/>
        <log value="C:\Users\gathi\projects\FedTraffic-RL\sumo_config\sumo_debug.log"/>
        <error-log value="C:\Users\gathi\projects\FedTraffic-RL\sumo_config\sumo_debug.log"/>
        <no-step-log value="true"/>
    </report>

    <traci_server>
        <remote-port value="52487"/>
    </traci_server>

    <gui_only>
        <quit-on-end value="true"/>
        <start value="true"/>
    </gui_only>

</sumoConfiguration>
-->

<tripinfos xmlns:xsi="http://www.w3.org/2001/XMLSchema-instance" xsi:noNamespaceSchemaLocation="http://sumo.dlr.de/xsd/tripinfo_file.xsd">
    <tripinfo id="periodic_EW.0" depart="0.00" departLane="edge_E_in_0" departPos="5.00" departSpeed="0.00" departDelay="0.00" arrival="80.00" arrivalLane="edge_W_out_0" arrivalPos="492.80" arrivalSpeed="13.55" duration="80.00" routeLength="995.00" waitingTime="0.00" waitingCount="0" stopTime="0.00" timeLoss="7.89" rerouteNo="0" devices="tripinfo_periodic_EW.0" vType="car" speedFactor="1.01" vaporized=""/>
    <tripinfo id="periodic_EN.0" depart="3.00" departLane="edge_E_in_0" departPos="5.00" departSpeed="0.00" departDelay="3.00" arrival="92.00" arrivalLane="edge_N_out_0" arrivalPos="492.80" arrivalSpeed="12.11" duration="89.00" routeLength="989.63" waitingTime="0.00" waitingCount="0" stopTime="0.00" timeLoss="8.31" rerouteNo="0" devices="tripinfo_periodic_EN.0" vType="car" speedFactor="0.90" vaporized=""/>
    <tripinfo id="periodic_NW.0" depart="3.00" departLane="edge_N_in_0" departPos="5.00" departSpeed="0.00" departDelay="3.00" arrival="98.00" arrivalLane="edge_W_out_0" arrivalPos="492.80" arrivalSpeed="12.29" duration="95.00" routeLength="989.63" waitingTime="1.00" waitingCount="1" stopTime="0.00" timeLoss="16.84" rerouteNo="0" devices="tripinfo_periodic_NW.0" vType="car" speedFactor="0.92" vaporized=""/>
    <tripinfo id="periodic_NE.0" depart="6.00" departLane="edge_N_in_0" departPos="5.00" departSpeed="0.00" departDelay="6.00" arrival="98.00" arrivalLane="edge_E_out_0" arrivalPos="492.80" arrivalSpeed="12.58" duration="92.00" routeLength="994.79" waitingTime="1.00" waitingCount="1" stopTime="0.00" timeLoss="19.59" rerouteNo="0" devices="tripinfo_periodic_NE.0" vType="car" speedFactor="1.04" vaporized=""/>
    <tripinfo id="periodic_NS.0" depart="0.00" departLane="edge_N_in_0" departPos="5.00" departSpeed="0.00" departDelay="0.00" arrival="100.00" arrivalLane="edge_S_out_0" arrivalPos="492.80" arrivalSpeed="10.62" duration="100.00" routeLength="995.00" waitingTime="2.00" waitingCount="1" stopTime="0.00" timeLoss="14.47" rerouteNo="0" devices="tripinfo_periodic_NS.0" vType="car" speedFactor="0.84" vaporized=""/>
    <tripinfo id="periodic_NS.1" depart="12.00" departLane="edge_N_in_0" departPos="5.00" departSpeed="0.00" departDelay="0.00" arrival="102.00" arrivalLane="edge_S_out_0" arrivalPos="492.80" arrivalSpeed="12.81" duration="90.00" routeLength="995.00" waitingTime="1.00" waitingCount="1" stopTime="0.00" timeLoss="17.63" rerouteNo="0" devices="tripinfo_periodic_NS.1" vType="car" speedFactor="1.03" vaporized=""/>
    <tripinfo id="periodic_WE.0" depart="0.00" departLane="edge_W_in_0" departPos="5.00" departSpeed="0.00" departDelay="0.00" arrival="106.00" arrivalLane="edge_E_out_0" arrivalPos="492.80" arrivalSpeed="13.85" duration="106.00" routeLength="995.00" waitingTime="21.00" waitingCount="1" stopTime="0.00" timeLoss="33.63" rerouteNo="0" devices="tripinfo_periodic_WE.0" vType="car" speedFactor="1.09" vaporized=""/>
    <tripinfo id="periodic_WS.0" depart="6.00" departLane="edge_W_in_0" departPos="5.00" departSpeed="0.00" departDelay="6.00" arrival="110.00" arrivalLane="edge_S_out_0" arrivalPos="492.80" arrivalSpeed="13.36" duration="104.00" routeLength="989.63" waitingTime="17.00" waitingCount="1" stopTime="0.00" timeLoss="31.88" rerouteNo="0" devices="tripinfo_periodic_WS.0" vType="car" speedFactor="1.01" vaporized=""/>
    <tripinfo id="periodic_WN.0" depart="3.00" departLane="edge_W_in_0" departPos="5.00" departSpeed="0.00" departDelay="3.00" arrival="111.00" arrivalLane="edge_N_out_0" arrivalPos="492.80" arrivalSpeed="12.42" duration="108.00" routeLength="994.79" waitingTime="17.00" waitingCount="1" stopTime="0.00" timeLoss="29.59" rerouteNo="0" devices="tripinfo_periodic_WN.0" vType="car" speedFactor="0.93" vaporized=""/>
    <tripinfo id="periodic_WE.1" depart="12.00" departLane="edge_W_in_0" departPos="5.00" departSpeed="0.00" departDelay="0.00" arrival="118.00" arrivalLane="edge_E_out_0" arrivalPos="492.80" arrivalSpeed="11.98" duration="106.00" routeLength="995.00" waitingTime="10.00" waitingCount="1" stopTime="0.00" timeLoss="23.63" rerouteNo="0" devices="tripinfo_periodic_WE.1" vType="car" speedFactor="0.87" vaporized=""/>
    <tripinfo id="periodic_NW.1" depart="15.00" departLane="edge_N_in_0" departPos="5.00" departSpeed="0.00" departDelay="3.00" arrival="119.00" arrivalLane="edge_W_out_0" arrivalPos="492.80" arrivalSpeed="13.03" duration="104.00" routeLength="989.63" waitingTime="13.00" waitingCount="1" stopTime="0.00" timeLoss="31.59" rerouteNo="0" devices="tripinfo_periodic_NW.1" vType="car" speedFactor="1.03" vaporized=""/>
    <tripinfo id="periodic_NE.1" depart="18.00" departLane="edge_N_in_0" departPos="5.00" departSpeed="0.00" departDelay="6.00" arrival="121.00" arrivalLane="edge_E_out_0" arrivalPos="492.80" arrivalSpeed="13.23" duration="103.00" routeLength="994.79" waitingTime="13.00" waitingCount="1" stopTime="0.00" timeLoss="30.55" rerouteNo="0" devices="tripinfo_periodic_NE.1" vType="car" speedFactor="1.12" vaporized=""/>
    <tripinfo id="periodic_NS.2" depart="24.00" departLane="edge_N_in_0" departPos="5.00" departSpeed="0.00" departDelay="0.00" arrival="126.00" arrivalLane="edge_S_out_0" arrivalPos="492.80" arrivalSpeed="12.69" duration="102.00" routeLength="995.00" waitingTime="11.00" waitingCount="1" stopTime="0.00" timeLoss="25.12" rerouteNo="0" devices="tripinfo_periodic_NS.2" vType="car" speedFactor="0.94" vaporized=""/>
    <tripinfo id="periodic_NW.2" depart="27.00" departLane="edge_N_in_0" departPos="5.00" departSpeed="0.00" departDelay="3.00" arrival="126.00" arrivalLane="edge_W_out_0" arrivalPos="492.80" arrivalSpeed="13.01" duration="99.00" routeLength="989.63" waitingTime="10.00" waitingCount="1" stopTime="0.00" timeLoss="27.21" rerouteNo="0" devices="tripinfo_periodic_NW.2" vType="car" speedFactor="1.07" vaporized=""/>
    <tripinfo id="periodic_SE.0" depart="2.00" departLane="edge_S_in_0" departPos="5.00" departSpeed="0.00" departDelay="2.00" arrival="134.00" arrivalLane="edge_E_out_0" arrivalPos="492.80" arrivalSpeed="12.65" duration="132.00" routeLength="989.63" waitingTime="43.00" waitingCount="1" stopTime="0.00" timeLoss="59.31" rerouteNo="0" devices="tripinfo_periodic_SE.0" vType="car" speedFactor="1.12" vaporized=""/>
    <tripinfo id="periodic_SN.0" depart="0.00" departLane="edge_S_in_0" departPos="5.00" departSpeed="0.00" departDelay="0.00" arrival="137.00" arrivalLane="edge_N_out_0" arrivalPos="492.80" arrivalSpeed="11.32" duration="137.00" routeLength="995.00" waitingTime="44.00" waitingCount="1" stopTime="0.00" timeLoss="55.45" rerouteNo="0" devices="tripinfo_periodic_SN.0" vType="car" speedFactor="0.89" vaporized=""/>
    <tripinfo id="periodic_SW.0" depart="5.00" departLane="edge_S_in_0" departPos="5.00" departSpeed="0.00" departDelay="5.00" arrival="140.00" arrivalLane="edge_W_out_0" arrivalPos="492.80" arrivalSpeed="12.27" duration="135.00" routeLength="994.79" waitingTime="42.00" waitingCount="1" stopTime="0.00" timeLoss="57.06" rerouteNo="0" devices="tripinfo_periodic_SW.0" vType="car" speedFactor="0.94" vaporized=""/>
    <tripinfo id="periodic_SN.1" depart="12.00" departLane="edge_S_in_0" departPos="5.00" departSpeed="0.00" departDelay="0.00" arrival="143.00" arrivalLane="edge_N_out_0" arrivalPos="492.80" arrivalSpeed="12.25" duration="131.00" routeLength="995.00" waitingTime="38.00" waitingCount="1" stopTime="0.00" timeLoss="50.19" rerouteNo="0" devices="tripinfo_periodic_SN.1" vType="car" speedFactor="0.89" vaporized=""/>
    <tripinfo id="periodic_ES.0" depart="5.00" departLane="edge_E_in_0" departPos="5.00" departSpeed="0.00" departDelay="5.00" arrival="144.00" arrivalLane="edge_S_out_0" arrivalPos="492.80" arrivalSpeed="12.62" duration="139.00" routeLength="994.79" waitingTime="53.00" waitingCount="1" stopTime="0.00" timeLoss="66.47" rerouteNo="0" devices="tripinfo_periodic_ES.0" vType="car" speedFactor="1.08" vaporized=""/>
    <tripinfo id="periodic_EW.1" depart="12.00" departLane="edge_E_in_0" departPos="5.00" departSpeed="0.00" departDelay="0.00" arrival="146.00" arrivalLane="edge_W_out_0" arrivalPos="492.80" arrivalSpeed="12.91" duration="134.00" routeLength="995.00" waitingTime="51.00" waitingCount="1" stopTime="0.00" timeLoss="62.03" rerouteNo="0" devices="tripinfo_periodic_EW.1" vType="car" speedFactor="1.01" vaporized=""/>
    <tripinfo id="periodic_ES.1" depart="17.00" departLane="edge_E_in_0" departPos="5.00" departSpeed="0.00" departDelay="5.00" arrival="154.00" arrivalLane="edge_S_out_0" arrivalPos="492.80" arrivalSpeed="12.31" duration="137.00" routeLength="994.79" waitingTime="46.00" waitingCount="1" stopTime="0.00" timeLoss="62.28" rerouteNo="0" devices="tripinfo_periodic_ES.1" vType="car" speedFactor="0.97" vaporized=""/>
    <tripinfo id="periodic_EN.1" depart="14.00" departLane="edge_E_in_0" departPos="5.00" departSpeed="0.00" departDelay="2.00" arrival="155.00" arrivalLane="edge_N_out_0" arrivalPos="492.80" arrivalSpeed="11.13" duration="141.00" routeLength="989.63" waitingTime="46.00" waitingCount="1" stopTime="0.00" timeLoss="59.53" rerouteNo="0" devices="tripinfo_periodic_EN.1" vType="car" speedFactor="0.89" vaporized=""/>
    <tripinfo id="periodic_NE.2" depart="29.00" departLane="edge_N_in_0" departPos="5.00" departSpeed="0.00" departDelay="5.00" arrival="158.00" arrivalLane="edge_E_out_0" arrivalPos="492.80" arrivalSpeed="13.76" duration="129.00" routeLength="994.79" waitingTime="36.00" waitingCount="2" stopTime="0.00" timeLoss="55.78" rerouteNo="0" devices="tripinfo_periodic_NE.2" vType="car" speedFactor="1.02" vaporized=""/>
    <tripinfo id="periodic_NS.3" depart="36.00" departLane="edge_N_in_0" departPos="5.00" departSpeed="0.00" departDelay="0.00" arrival="159.00" arrivalLane="edge_S_out_0" arrivalPos="492.80" arrivalSpeed="12.89" duration="123.00" routeLength="995.00" waitingTime="32.00" waitingCount="2" stopTime="0.00" timeLoss="51.16" rerouteNo="0" devices="tripinfo_periodic_NS.3" vType="car" speedFactor="1.05" vaporized=""/>
    <tripinfo id="periodic_NW.3" depart="38.00" departLane="edge_N_in_0" departPos="5.00" departSpeed="0.00" departDelay="2.00" arrival="165.00" arrivalLane="edge_W_out_0" arrivalPos="492.80" arrivalSpeed="12.50" duration="127.00" routeLength="989.63" waitingTime="28.00" waitingCount="2" stopTime="0.00" timeLoss="51.49" rerouteNo="0" devices="tripinfo_periodic_NW.3" vType="car" speedFactor="0.96" vaporized=""/>
    <tripinfo id="periodic_NE.3" depart="41.00" departLane="edge_N_in_0" departPos="5.00" departSpeed="0.00" departDelay="5.00" arrival="166.00" arrivalLane="edge_E_out_0" arrivalPos="492.80" arrivalSpeed="13.55" duration="125.00" routeLength="994.79" waitingTime="26.00" waitingCount="2" stopTime="0.00" timeLoss="52.23" rerouteNo="0" devices="tripinfo_periodic_NE.3" vType="car" speedFactor="1.00" vaporized=""/>
    <tripinfo id="periodic_WN.1" depart="14.00" departLane="edge_W_in_0" departPos="5.00" departSpeed="0.00" departDelay="2.00" arrival="171.00" arrivalLane="edge_N_out_0" arrivalPos="492.80" arrivalSpeed="12.46" duration="157.00" routeLength="994.79" waitingTime="62.00" waitingCount="2" stopTime="0.00" timeLoss="84.59" rerouteNo="0" devices="tripinfo_periodic_WN.1" vType="car" speedFactor="1.15" vaporized=""/>
    <tripinfo id="periodic_WS.1" depart="17.00" departLane="edge_W_in_0" departPos="5.00" departSpeed="0.00" departDelay="5.00" arrival="174.00" arrivalLane="edge_S_out_0" arrivalPos="492.80" arrivalSpeed="12.51" duration="157.00" routeLength="989.63" waitingTime="59.00" waitingCount="2" stopTime="0.00" timeLoss="83.99" rerouteNo="0" devices="tripinfo_periodic_WS.1" vType="car" speedFactor="1.02" vaporized=""/>
    <tripinfo id="periodic_WE.2" depart="24.00" departLane="edge_W_in_0" departPos="5.00" departSpeed="0.00" departDelay="0.00" arrival="175.00" arrivalLane="edge_E_out_0" arrivalPos="492.80" arrivalSpeed="12.54" duration="151.00" routeLength="995.00" waitingTime="57.00" waitingCount="2" stopTime="0.00" timeLoss="79.15" rerouteNo="0" devices="tripinfo_periodic_WE.2" vType="car" speedFactor="1.03" vaporized=""/>
    <tripinfo id="periodic_WN.2" depart="27.00" departLane="edge_W_in_0" departPos="5.00" departSpeed="0.00" departDelay="3.00" arrival="183.00" arrivalLane="edge_N_out_0" arrivalPos="492.80" arrivalSpeed="11.13" duration="156.00" routeLength="994.79" waitingTime="54.00" waitingCount="2" stopTime="0.00" timeLoss="75.68" rerouteNo="0" devices="tripinfo_periodic_WN.2" vType="car" speedFactor="0.90" vaporized=""/>
    <tripinfo id="periodic_ES.2" depart="29.00" departLane="edge_E_in_0" departPos="5.00" departSpeed="0.00" departDelay="5.00" arrival="189.00" arrivalLane="edge_S_out_0" arrivalPos="492.80" arrivalSpeed="13.40" duration="160.00" routeLength="994.79" waitingTime="55.00" waitingCount="2" stopTime="0.00" timeLoss="87.37" rerouteNo="0" devices="tripinfo_periodic_ES.2" vType="car" speedFactor="1.06" vaporized=""/>
    <tripinfo id="periodic_EW.2" depart="24.00" departLane="edge_E_in_0" departPos="5.00" departSpeed="0.00" departDelay="0.00" arrival="192.00" arrivalLane="edge_W_out_0" arrivalPos="492.80" arrivalSpeed="11.42" duration="168.00" routeLength="995.00" waitingTime="60.00" waitingCount="2" stopTime="0.00" timeLoss="81.39" rerouteNo="0" devices="tripinfo_periodic_EW.2" vType="car" speedFactor="0.83" vaporized=""/>
    <tripinfo id="periodic_EW.3" depart="36.00" departLane="edge_E_in_0" departPos="5.00" departSpeed="0.00" departDelay="0.00" arrival="193.00" arrivalLane="edge_W_out_0" arrivalPos="492.80" arrivalSpeed="13.41" duration="157.00" routeLength="995.00" waitingTime="54.00" waitingCount="2" stopTime="0.00" timeLoss="85.21" rerouteNo="0" devices="tripinfo_periodic_EW.3" vType="car" speedFactor="1.10" vaporized=""/>
    <tripinfo id="periodic_WS.2" depart="30.00" departLane="edge_W_in_0" departPos="5.00" departSpeed="0.00" departDelay="6.00" arrival="196.00" arrivalLane="edge_S_out_0" arrivalPos="492.80" arrivalSpeed="13.55" duration="166.00" routeLength="989.63" waitingTime="65.00" waitingCount="3" stopTime="0.00" timeLoss="93.92" rerouteNo="0" devices="tripinfo_periodic_WS.2" vType="car" speedFactor="1.17" vaporized=""/>
    <tripinfo id="periodic_EN.2" depart="26.00" departLane="edge_E_in_0" departPos="5.00" departSpeed="0.00" departDelay="2.00" arrival="198.00" arrivalLane="edge_N_out_0" arrivalPos="492.80" arrivalSpeed="10.43" duration="172.00" routeLength="989.63" waitingTime="55.00" waitingCount="2" stopTime="0.00" timeLoss="78.39" rerouteNo="0" devices="tripinfo_periodic_EN.2" vType="car" speedFactor="0.77" vaporized=""/>
    <tripinfo id="periodic_WN.3" depart="38.00" departLane="edge_W_in_0" departPos="5.00" departSpeed="0.00" departDelay="2.00" arrival="201.00" arrivalLane="edge_N_out_0" arrivalPos="492.80" arrivalSpeed="12.46" duration="163.00" routeLength="994.79" waitingTime="59.00" waitingCount="3" stopTime="0.00" timeLoss="90.75" rerouteNo="0" devices="tripinfo_periodic_WN.3" vType="car" speedFactor="1.12" vaporized=""/>
    <tripinfo id="periodic_WE.3" depart="36.00" departLane="edge_W_in_0" departPos="5.00" departSpeed="0.00" departDelay="0.00" arrival="202.00" arrivalLane="edge_E_out_0" arrivalPos="492.80" arrivalSpeed="11.43" duration="166.00" routeLength="995.00" waitingTime="61.00" waitingCount="2" stopTime="0.00" timeLoss="86.13" rerouteNo="0" devices="tripinfo_periodic_WE.3" vType="car" speedFactor="0.90" vaporized=""/>
    <tripinfo id="periodic_WS.3" depart="42.00" departLane="edge_W_in_0" departPos="5.00" departSpeed="0.00" departDelay="6.00" arrival="209.00" arrivalLane="edge_S_out_0" arrivalPos="492.80" arrivalSpeed="11.52" duration="167.00" routeLength="989.63" waitingTime="58.00" waitingCount="2" stopTime="0.00" timeLoss="87.06" rerouteNo="0" devices="tripinfo_periodic_WS.3" vType="car" speedFactor="0.91" vaporized=""/>
    <tripinfo id="periodic_NS.4" depart="48.00" departLane="edge_N_in_0" departPos="5.00" departSpeed="0.00" departDelay="0.00" arrival="211.00" arrivalLane="edge_S_out_0" arrivalPos="492.80" arrivalSpeed="12.00" duration="163.00" routeLength="995.00" waitingTime="62.00" waitingCount="2" stopTime="0.00" timeLoss="87.42" rerouteNo="0" devices="tripinfo_periodic_NS.4" vType="car" speedFactor="0.95" vaporized=""/>
    <tripinfo id="periodic_NW.4" depart="51.00" departLane="edge_N_in_0" departPos="5.00" departSpeed="0.00" departDelay="3.00" arrival="211.00" arrivalLane="edge_W_out_0" arrivalPos="492.80" arrivalSpeed="13.41" duration="160.00" routeLength="989.63" waitingTime="58.00" waitingCount="2" stopTime="0.00" timeLoss="87.63" rerouteNo="0" devices="tripinfo_periodic_NW.4" vType="car" speedFactor="1.12" vaporized=""/>
    <tripinfo id="periodic_NS.5" depart="60.00" departLane="edge_N_in_0" departPos="5.00" departSpeed="0.00" departDelay="0.00" arrival="217.00" arrivalLane="edge_S_out_0" arrivalPos="492.80" arrivalSpeed="12.41" duration="157.00" routeLength="995.00" waitingTime="56.00" waitingCount="2" stopTime="0.00" timeLoss="83.79" rerouteNo="0" devices="tripinfo_periodic_NS.5" vType="car" speedFactor="0.98" vaporized=""/>
    <tripinfo id="periodic_NE.4" depart="54.00" departLane="edge_N_in_0" departPos="5.00" departSpeed="0.00" departDelay="6.00" arrival="220.00" arrivalLane="edge_E_out_0" arrivalPos="492.80" arrivalSpeed="11.49" duration="166.00" routeLength="994.79" waitingTime="57.00" waitingCount="2" stopTime="0.00" timeLoss="84.91" rerouteNo="0" devices="tripinfo_periodic_NE.4" vType="car" speedFactor="0.90" vaporized=""/>
    <tripinfo id="periodic_WE.4" depart="48.00" departLane="edge_W_in_0" departPos="5.00" departSpeed="0.00" departDelay="0.00" arrival="223.00" arrivalLane="edge_E_out_0" arrivalPos="492.80" arrivalSpeed="12.92" duration="175.00" routeLength="995.00" waitingTime="69.00" waitingCount="3" stopTime="0.00" timeLoss="102.74" rerouteNo="0" devices="tripinfo_periodic_WE.4" vType="car" speedFactor="1.06" vaporized=""/>
    <tripinfo id="periodic_WN.4" depart="51.00" departLane="edge_W_in_0" departPos="5.00" departSpeed="0.00" departDelay="3.00" arrival="225.00" arrivalLane="edge_N_out_0" arrivalPos="492.80" arrivalSpeed="12.42" duration="174.00" routeLength="994.79" waitingTime="68.00" waitingCount="3" stopTime="0.00" timeLoss="101.58" rerouteNo="0" devices="tripinfo_periodic_WN.4" vType="car" speedFactor="1.09" vaporized=""/>
    <tripinfo id="periodic_WS.4" depart="54.00" departLane="edge_W_in_0" departPos="5.00" departSpeed="0.00" departDelay="6.00" arrival="229.00" arrivalLane="edge_S_out_0" arrivalPos="492.80" arrivalSpeed="12.15" duration="175.00" routeLength="989.63" waitingTime="65.00" waitingCount="3" stopTime="0.00" timeLoss="101.09" rerouteNo="0" devices="tripinfo_periodic_WS.4" vType="car" speedFactor="0.98" vaporized=""/>
    <tripinfo id="periodic_WE.5" depart="60.00" departLane="edge_W_in_0" departPos="5.00" departSpeed="0.00" departDelay="0.00" arrival="237.00" arrivalLane="edge_E_out_0" arrivalPos="492.80" arrivalSpeed="11.17" duration="177.00" routeLength="995.00" waitingTime="56.00" waitingCount="3" stopTime="0.00" timeLoss="90.80" rerouteNo="0" devices="tripinfo_periodic_WE.5" vType="car" speedFactor="0.83" vaporized=""/>
    <tripinfo id="periodic_SE.1" depart="14.00" departLane="edge_S_in_0" departPos="5.00" departSpeed="0.00" departDelay="2.00" arrival="239.00" arrivalLane="edge_E_out_0" arrivalPos="492.80" arrivalSpeed="13.59" duration="225.00" routeLength="989.63" waitingTime="127.00" waitingCount="2" stopTime="0.00" timeLoss="152.64" rerouteNo="0" devices="tripinfo_periodic_SE.1" vType="car" speedFactor="1.13" vaporized=""/>
    <tripinfo id="periodic_SW.1" depart="17.00" departLane="edge_S_in_0" departPos="5.00" departSpeed="0.00" departDelay="5.00" arrival="239.00" arrivalLane="edge_W_out_0" arrivalPos="492.80" arrivalSpeed="12.63" duration="222.00" routeLength="994.79" waitingTime="124.00" waitingCount="2" stopTime="0.00" timeLoss="148.50" rerouteNo="0" devices="tripinfo_periodic_SW.1" vType="car" speedFactor="0.99" vaporized=""/>
    <tripinfo id="periodic_SN.2" depart="24.00" departLane="edge_S_in_0" departPos="5.00" departSpeed="0.00" departDelay="0.00" arrival="240.00" arrivalLane="edge_N_out_0" arrivalPos="492.80" arrivalSpeed="12.80" duration="216.00" routeLength="995.00" waitingTime="123.00" waitingCount="2" stopTime="0.00" timeLoss="144.16" rerouteNo="0" devices="tripinfo_periodic_SN.2" vType="car" speedFactor="1.10" vaporized=""/>
    <tripinfo id="periodic_SE.2" depart="26.00" departLane="edge_S_in_0" departPos="5.00" departSpeed="0.00" departDelay="2.00" arrival="243.00" arrivalLane="edge_E_out_0" arrivalPos="492.80" arrivalSpeed="12.60" duration="217.00" routeLength="989.63" waitingTime="120.00" waitingCount="2" stopTime="0.00" timeLoss="144.63" rerouteNo="0" devices="tripinfo_periodic_SE.2" vType="car" speedFactor="1.04" vaporized=""/>
    <tripinfo id="periodic_NW.5" depart="63.00" departLane="edge_N_in_0" departPos="5.00" departSpeed="0.00" departDelay="3.00" arrival="249.00" arrivalLane="edge_W_out_0" arrivalPos="492.80" arrivalSpeed="13.15" duration="186.00" routeLength="989.63" waitingTime="82.00" waitingCount="3" stopTime="0.00" timeLoss="113.44" rerouteNo="0" devices="tripinfo_periodic_NW.5" vType="car" speedFactor="1.05" vaporized=""/>
    <tripinfo id="periodic_NE.5" depart="66.00" departLane="edge_N_in_0" departPos="5.00" departSpeed="0.00" departDelay="6.00" arrival="251.00" arrivalLane="edge_E_out_0" arrivalPos="492.80" arrivalSpeed="13.79" duration="185.00" routeLength="994.79" waitingTime="80.00" waitingCount="3" stopTime="0.00" timeLoss="112.51" rerouteNo="0" devices="tripinfo_periodic_NE.5" vType="car" speedFactor="1.14" vaporized=""/>
    <tripinfo id="periodic_NS.6" depart="72.00" departLane="edge_N_in_0" departPos="5.00" departSpeed="0.00" departDelay="0.00" arrival="255.00" arrivalLane="edge_S_out_0" arrivalPos="492.80" arrivalSpeed="12.82" duration="183.00" routeLength="995.00" waitingTime="74.00" waitingCount="3" stopTime="0.00" timeLoss="107.00" rerouteNo="0" devices="tripinfo_periodic_NS.6" vType="car" speedFactor="0.95" vaporized=""/>
    <tripinfo id="periodic_NW.6" depart="75.00" departLane="edge_N_in_0" departPos="5.00" departSpeed="0.00" departDelay="3.00" arrival="258.00" arrivalLane="edge_W_out_0" arrivalPos="492.80" arrivalSpeed="13.29" duration="183.00" routeLength="989.63" waitingTime="74.00" waitingCount="3" stopTime="0.00" timeLoss="109.14" rerouteNo="0" devices="tripinfo_periodic_NW.6" vType="car" speedFactor="0.98" vaporized=""/>
    <tripinfo id="periodic_SN.3" depart="36.00" departLane="edge_S_in_0" departPos="5.00" departSpeed="0.00" departDelay="0.00" arrival="263.00" arrivalLane="edge_N_out_0" arrivalPos="492.80" arrivalSpeed="13.28" duration="227.00" routeLength="995.00" waitingTime="125.00" waitingCount="3" stopTime="0.00" timeLoss="155.18" rerouteNo="0" devices="tripinfo_periodic_SN.3" vType="car" speedFactor="1.00" vaporized=""/>
    <tripinfo id="periodic_SW.2" depart="29.00" departLane="edge_S_in_0" departPos="5.00" departSpeed="0.00" departDelay="5.00" arrival="267.00" arrivalLane="edge_W_out_0" arrivalPos="492.80" arrivalSpeed="12.05" duration="238.00" routeLength="994.79" waitingTime="129.00" waitingCount="3" stopTime="0.00" timeLoss="155.49" rerouteNo="0" devices="tripinfo_periodic_SW.2" vType="car" speedFactor="0.88" vaporized=""/>
    <tripinfo id="periodic_SE.3" depart="39.00" departLane="edge_S_in_0" departPos="5.00" departSpeed="0.00" departDelay="3.00" arrival="267.00" arrivalLane="edge_E_out_0" arrivalPos="492.80" arrivalSpeed="12.67" duration="228.00" routeLength="989.63" waitingTime="125.00" waitingCount="3" stopTime="0.00" timeLoss="155.75" rerouteNo="0" devices="tripinfo_periodic_SE.3" vType="car" speedFactor="1.02" vaporized=""/>
    <tripinfo id="periodic_SW.3" depart="41.00" departLane="edge_S_in_0" departPos="5.00" departSpeed="0.00" departDelay="5.00" arrival="270.00" arrivalLane="edge_W_out_0" arrivalPos="492.80" arrivalSpeed="13.30" duration="229.00" routeLength="994.79" waitingTime="120.00" waitingCount="3" stopTime="0.00" timeLoss="155.38" rerouteNo="0" devices="tripinfo_periodic_SW.3" vType="car" speedFactor="0.99" vaporized=""/>
    <tripinfo id="periodic_NE.6" depart="78.00" departLane="edge_N_in_0" departPos="5.00" departSpeed="0.00" departDelay="6.00" arrival="275.00" arrivalLane="edge_E_out_0" arrivalPos="492.80" arrivalSpeed="12.43" duration="197.00" routeLength="994.79" waitingTime="83.00" waitingCount="5" stopTime="0.00" timeLoss="123.82" rerouteNo="0" devices="tripinfo_periodic_NE.6" vType="car" speedFactor="1.02" vaporized=""/>
    <tripinfo id="periodic_NS.7" depart="84.00" departLane="edge_N_in_0" departPos="5.00" departSpeed="0.00" departDelay="0.00" arrival="277.00" arrivalLane="edge_S_out_0" arrivalPos="492.80" arrivalSpeed="13.71" duration="193.00" routeLength="995.00" waitingTime="78.00" waitingCount="4" stopTime="0.00" timeLoss="120.49" rerouteNo="0" devices="tripinfo_periodic_NS.7" vType="car" speedFactor="1.13" vaporized=""/>
    <tripinfo id="periodic_NW.7" depart="87.00" departLane="edge_N_in_0" departPos="5.00" departSpeed="0.00" departDelay="3.00" arrival="280.00" arrivalLane="edge_W_out_0" arrivalPos="492.80" arrivalSpeed="13.21" duration="193.00" routeLength="989.63" waitingTime="74.00" waitingCount="4" stopTime="0.00" timeLoss="120.78" rerouteNo="0" devices="tripinfo_periodic_NW.7" vType="car" speedFactor="1.03" vaporized=""/>
    <tripinfo id="periodic_NE.7" depart="92.00" departLane="edge_N_in_0" departPos="5.00" departSpeed="0.00" departDelay="8.00" arrival="283.00" arrivalLane="edge_E_out_0" arrivalPos="492.80" arrivalSpeed="12.83" duration="191.00" routeLength="994.79" waitingTime="71.00" waitingCount="4" stopTime="0.00" timeLoss="117.91" rerouteNo="0" devices="tripinfo_periodic_NE.7" vType="car" speedFactor="1.00" vaporized=""/>
    <tripinfo id="periodic_EN.3" depart="39.00" departLane="edge_E_in_0" departPos="5.00" departSpeed="0.00" departDelay="3.00" arrival="288.00" arrivalLane="edge_N_out_0" arrivalPos="492.80" arrivalSpeed="12.95" duration="249.00" routeLength="989.63" waitingTime="143.00" waitingCount="3" stopTime="0.00" timeLoss="176.40" rerouteNo="0" devices="tripinfo_periodic_EN.3" vType="car" speedFactor="1.00" vaporized=""/>
    <tripinfo id="periodic_ES.3" depart="41.00" departLane="edge_E_in_0" departPos="5.00" departSpeed="0.00" departDelay="5.00" arrival="293.00" arrivalLane="edge_S_out_0" arrivalPos="492.80" arrivalSpeed="12.90" duration="252.00" routeLength="994.79" waitingTime="142.00" waitingCount="3" stopTime="0.00" timeLoss="175.97" rerouteNo="0" devices="tripinfo_periodic_ES.3" vType="car" speedFactor="0.96" vaporized=""/>
    <tripinfo id="periodic_EW.4" depart="48.00" departLane="edge_E_in_0" departPos="5.00" departSpeed="0.00" departDelay="0.00" arrival="295.00" arrivalLane="edge_W_out_0" arrivalPos="492.80" arrivalSpeed="12.65" duration="247.00" routeLength="995.00" waitingTime="136.00" waitingCount="3" stopTime="0.00" timeLoss="169.40" rerouteNo="0" devices="tripinfo_periodic_EW.4" vType="car" speedFactor="0.93" vaporized=""/>
    <tripinfo id="periodic_EN.4" depart="51.00" departLane="edge_E_in_0" departPos="5.00" departSpeed="0.00" departDelay="3.00" arrival="300.00" arrivalLane="edge_N_out_0" arrivalPos="492.80" arrivalSpeed="11.84" duration="249.00" routeLength="989.63" waitingTime="135.00" waitingCount="3" stopTime="0.00" timeLoss="170.07" rerouteNo="0" devices="tripinfo_periodic_EN.4" vType="car" speedFactor="0.92" vaporized=""/>
    <tripinfo id="periodic_NW.8" depart="99.00" departLane="edge_N_in_0" departPos="5.00" departSpeed="0.00" departDelay="3.00" arrival="306.00" arrivalLane="edge_W_out_0" arrivalPos="492.80" arrivalSpeed="12.28" duration="207.00" routeLength="989.63" waitingTime="74.00" waitingCount="4" stopTime="0.00" timeLoss="131.37" rerouteNo="0" devices="tripinfo_periodic_NW.8" vType="car" speedFactor="0.95" vaporized=""/>
    <tripinfo id="periodic_NE.8" depart="102.00" departLane="edge_N_in_0" departPos="5.00" departSpeed="0.00" departDelay="6.00" arrival="307.00" arrivalLane="edge_E_out_0" arrivalPos="492.80" arrivalSpeed="13.81" duration="205.00" routeLength="994.79" waitingTime="72.00" waitingCount="4" stopTime="0.00" timeLoss="132.18" rerouteNo="0" devices="tripinfo_periodic_NE.8" vType="car" speedFactor="1.01" vaporized=""/>