<?xml version="1.0" encoding="UTF-8"?>

<!-- generated on 2026-03-11T09:04:58.011067+05:30 by Eclipse SUMO sumo 1.25.0
<sumoConfiguration xmlns:xsi="http://www.w3.org/2001/XMLSchema-instance" xsi:noNamespaceSchemaLocation="http://sumo.dlr.de/xsd/sumoConfiguration.xsd">

    <input>
        <net-file value="C:\Users\gathi\projects\FedTraffic-RL\sumo_config\hello.net.xml"/>
        <route-files value="C:\Users\gathi\projects\FedTraffic-RL\sumo_config\hello.rou.xml"/>
        <additional-files value="C:\Users\gathi\projects\FedTraffic-RL\sumo_config\hello.view.xml"/>
    </input>

    <output>
        <tripinfo-output value="C:\Users\gathi\projects\FedTraffic-RL\sumo_config\tripinfo.xml"/>
    </output>

    <time>
        <begin value="0"/>
        <end value="1000"/>
    </time>

    <report>
        <no-warnings value="true"/>
        <log value="C:\Users\gathi\projects\FedTraffic-RL\sumo_config\sumo_debug.log"/>
        <error-log value="C:\Users\gathi\projects\FedTraffic-RL\sumo_config\sumo_debug.log"/>
        <no-step-log value="true"/>
    </report>

    <traci_server>
        <remote-port value="56382"/>
    </traci_server>

    <gui_only>
        <quit-on-end value="true"/>
        <start value="true"/>
    </gui_only>

</sumoConfiguration>
-->

<tripinfos xmlns:xsi="http://www.w3.org/2001/XMLSchema-instance" xsi:noNamespaceSchemaLocation="http://sumo.dlr.de/xsd/tripinfo_file.xsd">
    <tripinfo id="f_NS.0" depart="13.00" departLane="edge_N_in_0" departPos="5.00" departSpeed="0.00" departDelay="0.00" arrival="88.00" arrivalLane="edge_S_out_0" arrivalPos="492.80" arrivalSpeed="14.60" duration="75.00" routeLength="995.00" waitingTime="0.00" waitingCount="0" stopTime="0.00" timeLoss="8.35" rerouteNo="0" devices="tripinfo_f_NS.0" vType="car" speedFactor="1.08" vaporized=""/>
    <tripinfo id="f_NS.1" depart="20.00" departLane="edge_N_in_0" departPos="5.00" departSpeed="0.00" departDelay="0.00" arrival="99.00" arrivalLane="edge_S_out_0" arrivalPos="492.80" arrivalSpeed="13.43" duration="79.00" routeLength="995.00" waitingTime="0.00" waitingCount="0" stopTime="0.00" timeLoss="7.31" rerouteNo="0" devices="tripinfo_f_NS.1" vType="car" speedFactor="1.00" vaporized=""/>
    <tripinfo id="f_SN.0" depart="5.00" departLane="edge_S_in_0" departPos="5.00" departSpeed="0.00" departDelay="0.00" arrival="107.00" arrivalLane="edge_N_out_0" arrivalPos="492.80" arrivalSpeed="13.28" duration="102.00" routeLength="995.00" waitingTime="17.00" waitingCount="1" stopTime="0.00" timeLoss="27.75" rerouteNo="0" devices="tripinfo_f_SN.0" vType="car" speedFactor="0.97" vaporized=""/>
    <tripinfo id="f_SN.1" depart="25.00" departLane="edge_S_in_0" departPos="5.00" departSpeed="0.00" departDelay="0.00" arrival="110.00" arrivalLane="edge_N_out_0" arrivalPos="492.80" arrivalSpeed="13.37" duration="85.00" routeLength="995.00" waitingTime="0.00" waitingCount="0" stopTime="0.00" timeLoss="16.15" rerouteNo="0" devices="tripinfo_f_SN.1" vType="car" speedFactor="1.04" vaporized=""/>
    <tripinfo id="f_SW.0" depart="17.00" departLane="edge_S_in_0" departPos="5.00" departSpeed="0.00" departDelay="0.00" arrival="115.00" arrivalLane="edge_W_out_0" arrivalPos="492.80" arrivalSpeed="11.39" duration="98.00" routeLength="994.79" waitingTime="0.00" waitingCount="0" stopTime="0.00" timeLoss="13.56" rerouteNo="0" devices="tripinfo_f_SW.0" vType="car" speedFactor="0.86" vaporized=""/>
    <tripinfo id="f_SW.1" depart="19.00" departLane="edge_S_in_0" departPos="2.10" departSpeed="0.00" departDelay="1.00" arrival="117.00" arrivalLane="edge_W_out_0" arrivalPos="492.80" arrivalSpeed="13.50" duration="98.00" routeLength="997.69" waitingTime="1.00" waitingCount="1" stopTime="0.00" timeLoss="26.80" rerouteNo="0" devices="tripinfo_f_SW.1" vType="moto" speedFactor="1.03" vaporized=""/>
    <tripinfo id="f_NW.0" depart="30.00" departLane="edge_N_in_0" departPos="5.00" departSpeed="0.00" departDelay="0.00" arrival="119.00" arrivalLane="edge_W_out_0" arrivalPos="492.80" arrivalSpeed="13.08" duration="89.00" routeLength="989.63" waitingTime="5.00" waitingCount="1" stopTime="0.00" timeLoss="15.57" rerouteNo="0" devices="tripinfo_f_NW.0" vType="car" speedFactor="0.99" vaporized=""/>
    <tripinfo id="f_SW.2" depart="39.00" departLane="edge_S_in_0" departPos="5.00" departSpeed="0.00" departDelay="0.00" arrival="133.00" arrivalLane="edge_W_out_0" arrivalPos="492.80" arrivalSpeed="12.72" duration="94.00" routeLength="994.79" waitingTime="8.00" waitingCount="1" stopTime="0.00" timeLoss="19.29" rerouteNo="0" devices="tripinfo_f_SW.2" vType="car" speedFactor="0.97" vaporized=""/>
    <tripinfo id="f_SN.2" depart="42.00" departLane="edge_S_in_0" departPos="5.00" departSpeed="0.00" departDelay="1.00" arrival="141.00" arrivalLane="edge_N_out_0" arrivalPos="492.80" arrivalSpeed="10.83" duration="99.00" routeLength="995.00" waitingTime="0.00" waitingCount="0" stopTime="0.00" timeLoss="12.73" rerouteNo="0" devices="tripinfo_f_SN.2" vType="car" speedFactor="0.83" vaporized=""/>
    <tripinfo id="f_SN.3" depart="50.00" departLane="edge_S_in_0" departPos="5.00" departSpeed="0.00" departDelay="0.00" arrival="143.00" arrivalLane="edge_N_out_0" arrivalPos="492.80" arrivalSpeed="14.01" duration="93.00" routeLength="995.00" waitingTime="0.00" waitingCount="0" stopTime="0.00" timeLoss="25.96" rerouteNo="0" devices="tripinfo_f_SN.3" vType="car" speedFactor="1.09" vaporized=""/>
    <tripinfo id="f_EW.0" depart="2.00" departLane="edge_E_in_0" departPos="5.00" departSpeed="0.00" departDelay="0.00" arrival="151.00" arrivalLane="edge_W_out_0" arrivalPos="492.80" arrivalSpeed="10.98" duration="149.00" routeLength="995.00" waitingTime="54.00" waitingCount="1" stopTime="0.00" timeLoss="63.97" rerouteNo="0" devices="tripinfo_f_EW.0" vType="car" speedFactor="0.85" vaporized=""/>
    <tripinfo id="f_EW.1" depart="42.00" departLane="edge_E_in_0" departPos="5.00" departSpeed="0.00" departDelay="0.00" arrival="153.00" arrivalLane="edge_W_out_0" arrivalPos="492.80" arrivalSpeed="13.50" duration="111.00" routeLength="995.00" waitingTime="19.00" waitingCount="1" stopTime="0.00" timeLoss="37.97" rerouteNo="0" devices="tripinfo_f_EW.1" vType="car" speedFactor="0.99" vaporized=""/>
    <tripinfo id="f_EW.2" depart="66.00" departLane="edge_E_in_0" departPos="5.00" departSpeed="0.00" departDelay="0.00" arrival="154.00" arrivalLane="edge_W_out_0" arrivalPos="492.80" arrivalSpeed="14.55" duration="88.00" routeLength="995.00" waitingTime="1.00" waitingCount="1" stopTime="0.00" timeLoss="21.45" rerouteNo="0" devices="tripinfo_f_EW.2" vType="car" speedFactor="1.11" vaporized=""/>
    <tripinfo id="f_SN.4" depart="79.00" departLane="edge_S_in_0" departPos="5.00" departSpeed="0.00" departDelay="0.00" arrival="161.00" arrivalLane="edge_N_out_0" arrivalPos="492.80" arrivalSpeed="13.57" duration="82.00" routeLength="995.00" waitingTime="0.00" waitingCount="0" stopTime="0.00" timeLoss="11.53" rerouteNo="0" devices="tripinfo_f_SN.4" vType="car" speedFactor="1.03" vaporized=""/>
    <tripinfo id="f_SE.0" depart="68.00" departLane="edge_S_in_0" departPos="5.00" departSpeed="0.00" departDelay="0.00" arrival="162.00" arrivalLane="edge_E_out_0" arrivalPos="492.80" arrivalSpeed="12.17" duration="94.00" routeLength="989.63" waitingTime="6.00" waitingCount="1" stopTime="0.00" timeLoss="18.13" rerouteNo="0" devices="tripinfo_f_SE.0" vType="car" speedFactor="0.95" vaporized=""/>
    <tripinfo id="f_SW.3" depart="61.00" departLane="edge_S_in_0" departPos="5.00" departSpeed="0.00" departDelay="0.00" arrival="164.00" arrivalLane="edge_W_out_0" arrivalPos="492.80" arrivalSpeed="11.25" duration="103.00" routeLength="994.79" waitingTime="7.00" waitingCount="1" stopTime="0.00" timeLoss="18.08" rerouteNo="0" devices="tripinfo_f_SW.3" vType="car" speedFactor="0.85" vaporized=""/>
    <tripinfo id="f_SW.4" depart="82.00" departLane="edge_S_in_0" departPos="5.00" departSpeed="0.00" departDelay="1.00" arrival="166.00" arrivalLane="edge_W_out_0" arrivalPos="492.80" arrivalSpeed="13.74" duration="84.00" routeLength="994.79" waitingTime="0.00" waitingCount="0" stopTime="0.00" timeLoss="10.72" rerouteNo="0" devices="tripinfo_f_SW.4" vType="car" speedFactor="1.00" vaporized=""/>
    <tripinfo id="f_NW.1" depart="69.00" departLane="edge_N_in_0" departPos="5.00" departSpeed="0.00" departDelay="0.00" arrival="173.00" arrivalLane="edge_W_out_0" arrivalPos="492.80" arrivalSpeed="12.35" duration="104.00" routeLength="989.63" waitingTime="14.00" waitingCount="1" stopTime="0.00" timeLoss="26.74" rerouteNo="0" devices="tripinfo_f_NW.1" vType="car" speedFactor="0.93" vaporized=""/>
    <tripinfo id="f_NW.2" depart="89.00" departLane="edge_N_in_0" departPos="2.10" departSpeed="0.00" departDelay="0.00" arrival="175.00" arrivalLane="edge_W_out_0" arrivalPos="492.80" arrivalSpeed="14.70" duration="86.00" routeLength="992.53" waitingTime="4.00" waitingCount="1" stopTime="0.00" timeLoss="21.01" rerouteNo="0" devices="tripinfo_f_NW.2" vType="moto" speedFactor="1.12" vaporized=""/>
    <tripinfo id="f_SN.5" depart="95.00" departLane="edge_S_in_0" departPos="5.00" departSpeed="0.00" departDelay="0.00" arrival="183.00" arrivalLane="edge_N_out_0" arrivalPos="492.80" arrivalSpeed="13.12" duration="88.00" routeLength="995.00" waitingTime="5.00" waitingCount="1" stopTime="0.00" timeLoss="17.62" rerouteNo="0" devices="tripinfo_f_SN.5" vType="car" speedFactor="1.02" vaporized=""/>
    <tripinfo id="f_SN.6" depart="102.00" departLane="edge_S_in_0" departPos="5.00" departSpeed="0.00" departDelay="0.00" arrival="186.00" arrivalLane="edge_N_out_0" arrivalPos="492.80" arrivalSpeed="13.72" duration="84.00" routeLength="995.00" waitingTime="0.00" waitingCount="0" stopTime="0.00" timeLoss="12.51" rerouteNo="0" devices="tripinfo_f_SN.6" vType="car" speedFactor="1.01" vaporized=""/>
    <tripinfo id="f_SN.7" depart="110.00" departLane="edge_S_in_0" departPos="2.10" departSpeed="0.00" departDelay="0.00" arrival="190.00" arrivalLane="edge_N_out_0" arrivalPos="492.80" arrivalSpeed="12.80" duration="80.00" routeLength="997.90" waitingTime="0.00" waitingCount="0" stopTime="0.00" timeLoss="7.29" rerouteNo="0" devices="tripinfo_f_SN.7" vType="moto" speedFactor="1.00" vaporized=""/>
    <tripinfo id="f_SN.8" depart="116.00" departLane="edge_S_in_0" departPos="5.00" departSpeed="0.00" departDelay="0.00" arrival="200.00" arrivalLane="edge_N_out_0" arrivalPos="492.80" arrivalSpeed="12.91" duration="84.00" routeLength="995.00" waitingTime="0.00" waitingCount="0" stopTime="0.00" timeLoss="11.00" rerouteNo="0" devices="tripinfo_f_SN.8" vType="car" speedFactor="0.98" vaporized=""/>
    <tripinfo id="f_SE.1" depart="112.00" departLane="edge_S_in_0" departPos="5.00" departSpeed="0.00" departDelay="2.00" arrival="201.00" arrivalLane="edge_E_out_0" arrivalPos="492.80" arrivalSpeed="12.11" duration="89.00" routeLength="989.63" waitingTime="0.00" waitingCount="0" stopTime="0.00" timeLoss="10.94" rerouteNo="0" devices="tripinfo_f_SE.1" vType="car" speedFactor="0.92" vaporized=""/>
    <tripinfo id="f_SN.9" depart="119.00" departLane="edge_S_in_0" departPos="5.00" departSpeed="0.00" departDelay="1.00" arrival="202.00" arrivalLane="edge_N_out_0" arrivalPos="492.80" arrivalSpeed="14.56" duration="83.00" routeLength="995.00" waitingTime="0.00" waitingCount="0" stopTime="0.00" timeLoss="15.99" rerouteNo="0" devices="tripinfo_f_SN.9" vType="car" speedFactor="1.08" vaporized=""/>
    <tripinfo id="f_EW.3" depart="77.00" departLane="edge_E_in_0" departPos="5.00" departSpeed="0.00" departDelay="0.00" arrival="214.00" arrivalLane="edge_W_out_0" arrivalPos="492.80" arrivalSpeed="13.22" duration="137.00" routeLength="995.00" waitingTime="39.00" waitingCount="1" stopTime="0.00" timeLoss="64.50" rerouteNo="0" devices="tripinfo_f_EW.3" vType="car" speedFactor="0.99" vaporized=""/>
    <tripinfo id="f_WN.0" depart="11.00" departLane="edge_W_in_0" departPos="5.00" departSpeed="0.00" departDelay="0.00" arrival="222.00" arrivalLane="edge_N_out_0" arrivalPos="492.80" arrivalSpeed="13.47" duration="211.00" routeLength="994.79" waitingTime="129.00" waitingCount="1" stopTime="0.00" timeLoss="141.77" rerouteNo="0" devices="tripinfo_f_WN.0" vType="car" speedFactor="1.05" vaporized=""/>
    <tripinfo id="f_ES.0" depart="70.00" departLane="edge_E_in_0" departPos="12.10" departSpeed="0.00" departDelay="1.00" arrival="225.00" arrivalLane="edge_S_out_0" arrivalPos="492.80" arrivalSpeed="9.70" duration="155.00" routeLength="987.69" waitingTime="41.00" waitingCount="1" stopTime="0.00" timeLoss="55.26" rerouteNo="0" devices="tripinfo_f_ES.0" vType="bus" speedFactor="0.92" vaporized=""/>
    <tripinfo id="f_EW.4" depart="81.00" departLane="edge_E_in_0" departPos="5.00" departSpeed="0.00" departDelay="0.00" arrival="230.00" arrivalLane="edge_W_out_0" arrivalPos="492.80" arrivalSpeed="9.06" duration="149.00" routeLength="995.00" waitingTime="36.00" waitingCount="1" stopTime="0.00" timeLoss="50.54" rerouteNo="0" devices="tripinfo_f_EW.4" vType="car" speedFactor="0.73" vaporized=""/>
    <tripinfo id="f_WS.0" depart="0.00" departLane="edge_W_in_0" departPos="5.00" departSpeed="0.00" departDelay="0.00" arrival="231.00" arrivalLane="edge_S_out_0" arrivalPos="492.80" arrivalSpeed="10.90" duration="231.00" routeLength="989.63" waitingTime="130.00" waitingCount="1" stopTime="0.00" timeLoss="141.22" rerouteNo="0" devices="tripinfo_f_WS.0" vType="car" speedFactor="0.80" vaporized=""/>
    <tripinfo id="f_WE.0" depart="14.00" departLane="edge_W_in_0" departPos="5.00" departSpeed="0.00" departDelay="2.00" arrival="231.00" arrivalLane="edge_E_out_0" arrivalPos="492.80" arrivalSpeed="12.21" duration="217.00" routeLength="995.00" waitingTime="123.00" waitingCount="1" stopTime="0.00" timeLoss="135.18" rerouteNo="0" devices="tripinfo_f_WE.0" vType="car" speedFactor="0.88" vaporized=""/>
    <tripinfo id="f_NW.3" depart="103.00" departLane="edge_N_in_0" departPos="2.10" departSpeed="0.00" departDelay="0.00" arrival="232.00" arrivalLane="edge_W_out_0" arrivalPos="492.80" arrivalSpeed="13.94" duration="129.00" routeLength="992.53" waitingTime="52.00" waitingCount="1" stopTime="0.00" timeLoss="63.18" rerouteNo="0" devices="tripinfo_f_NW.3" vType="moto" speedFactor="1.10" vaporized=""/>
    <tripinfo id="f_NS.2" depart="107.00" departLane="edge_N_in_0" departPos="2.10" departSpeed="0.00" departDelay="1.00" arrival="233.00" arrivalLane="edge_S_out_0" arrivalPos="492.80" arrivalSpeed="14.96" duration="126.00" routeLength="997.90" waitingTime="51.00" waitingCount="1" stopTime="0.00" timeLoss="65.70" rerouteNo="0" devices="tripinfo_f_NS.2" vType="moto" speedFactor="1.20" vaporized=""/>
    <tripinfo id="f_NW.4" depart="117.00" departLane="edge_N_in_0" departPos="5.00" departSpeed="0.00" departDelay="0.00" arrival="240.00" arrivalLane="edge_W_out_0" arrivalPos="492.80" arrivalSpeed="12.80" duration="123.00" routeLength="989.63" waitingTime="35.00" waitingCount="1" stopTime="0.00" timeLoss="47.77" rerouteNo="0" devices="tripinfo_f_NW.4" vType="car" speedFactor="0.96" vaporized=""/>
    <tripinfo id="f_NE.0" depart="128.00" departLane="edge_N_in_0" departPos="5.00" departSpeed="0.00" departDelay="0.00" arrival="244.00" arrivalLane="edge_E_out_0" arrivalPos="492.80" arrivalSpeed="12.73" duration="116.00" routeLength="994.79" waitingTime="25.00" waitingCount="1" stopTime="0.00" timeLoss="38.90" rerouteNo="0" devices="tripinfo_f_NE.0" vType="car" speedFactor="0.95" vaporized=""/>
    <tripinfo id="f_NW.5" depart="164.00" departLane="edge_N_in_0" departPos="5.00" departSpeed="0.00" departDelay="0.00" arrival="251.00" arrivalLane="edge_W_out_0" arrivalPos="492.80" arrivalSpeed="14.17" duration="87.00" routeLength="989.63" waitingTime="0.00" waitingCount="0" stopTime="0.00" timeLoss="17.19" rerouteNo="0" devices="tripinfo_f_NW.5" vType="car" speedFactor="1.04" vaporized=""/>
    <tripinfo id="f_NE.1" depart="143.00" departLane="edge_N_in_0" departPos="5.00" departSpeed="0.00" departDelay="2.00" arrival="253.00" arrivalLane="edge_E_out_0" arrivalPos="492.80" arrivalSpeed="11.64" duration="110.00" routeLength="994.79" waitingTime="10.00" waitingCount="1" stopTime="0.00" timeLoss="25.67" rerouteNo="0" devices="tripinfo_f_NE.1" vType="car" speedFactor="0.87" vaporized=""/>
    <tripinfo id="f_NE.2" depart="152.00" departLane="edge_N_in_0" departPos="5.00" departSpeed="0.00" departDelay="0.00" arrival="254.00" arrivalLane="edge_E_out_0" arrivalPos="492.80" arrivalSpeed="13.23" duration="102.00" routeLength="994.79" waitingTime="5.00" waitingCount="1" stopTime="0.00" timeLoss="28.88" rerouteNo="0" devices="tripinfo_f_NE.2" vType="car" speedFactor="0.99" vaporized=""/>
    <tripinfo id="f_WN.1" depart="25.00" departLane="edge_W_in_0" departPos="2.10" departSpeed="0.00" departDelay="0.00" arrival="261.00" arrivalLane="edge_N_out_0" arrivalPos="492.80" arrivalSpeed="14.96" duration="236.00" routeLength="997.69" waitingTime="131.00" waitingCount="2" stopTime="0.00" timeLoss="170.48" rerouteNo="0" devices="tripinfo_f_WN.1" vType="moto" speedFactor="1.11" vaporized=""/>
    <tripinfo id="f_WE.1" depart="30.00" departLane="edge_W_in_0" departPos="2.10" departSpeed="0.00" departDelay="0.00" arrival="267.00" arrivalLane="edge_E_out_0" arrivalPos="492.80" arrivalSpeed="12.71" duration="237.00" routeLength="997.90" waitingTime="130.00" waitingCount="2" stopTime="0.00" timeLoss="164.14" rerouteNo="0" devices="tripinfo_f_WE.1" vType="moto" speedFactor="0.99" vaporized=""/>
    <tripinfo id="f_EN.0" depart="126.00" departLane="edge_E_in_0" departPos="2.10" departSpeed="0.00" departDelay="0.00" arrival="274.00" arrivalLane="edge_N_out_0" arrivalPos="492.80" arrivalSpeed="13.92" duration="148.00" routeLength="992.53" waitingTime="58.00" waitingCount="2" stopTime="0.00" timeLoss="81.34" rerouteNo="0" devices="tripinfo_f_EN.0" vType="moto" speedFactor="1.10" vaporized=""/>
    <tripinfo id="f_WS.1" depart="22.00" departLane="edge_W_in_0" departPos="12.10" departSpeed="0.00" departDelay="0.00" arrival="276.00" arrivalLane="edge_S_out_0" arrivalPos="492.80" arrivalSpeed="9.61" duration="254.00" routeLength="982.53" waitingTime="133.00" waitingCount="2" stopTime="0.00" timeLoss="154.33" rerouteNo="0" devices="tripinfo_f_WS.1" vType="bus" speedFactor="0.84" vaporized=""/>
    <tripinfo id="f_EW.5" depart="89.00" departLane="edge_E_in_0" departPos="2.10" departSpeed="0.00" departDelay="0.00" arrival="276.00" arrivalLane="edge_W_out_0" arrivalPos="492.80" arrivalSpeed="13.35" duration="187.00" routeLength="997.90" waitingTime="82.00" waitingCount="2" stopTime="0.00" timeLoss="113.19" rerouteNo="0" devices="tripinfo_f_EW.5" vType="moto" speedFactor="0.98" vaporized=""/>
    <tripinfo id="f_ES.1" depart="86.00" departLane="edge_E_in_0" departPos="5.00" departSpeed="0.00" departDelay="0.00" arrival="279.00" arrivalLane="edge_S_out_0" arrivalPos="492.80" arrivalSpeed="11.16" duration="193.00" routeLength="994.79" waitingTime="85.00" waitingCount="2" stopTime="0.00" timeLoss="108.72" rerouteNo="0" devices="tripinfo_f_ES.1" vType="car" speedFactor="0.86" vaporized=""/>
    <tripinfo id="f_EW.6" depart="144.00" departLane="edge_E_in_0" departPos="5.00" departSpeed="0.00" departDelay="0.00" arrival="283.00" arrivalLane="edge_W_out_0" arrivalPos="492.80" arrivalSpeed="12.56" duration="139.00" routeLength="995.00" waitingTime="46.00" waitingCount="1" stopTime="0.00" timeLoss="59.64" rerouteNo="0" devices="tripinfo_f_EW.6" vType="car" speedFactor="0.91" vaporized=""/>
    <tripinfo id="f_SN.10" depart="148.00" departLane="edge_S_in_0" departPos="5.00" departSpeed="0.00" departDelay="0.00" arrival="285.00" arrivalLane="edge_N_out_0" arrivalPos="492.80" arrivalSpeed="14.85" duration="137.00" routeLength="995.00" waitingTime="57.00" waitingCount="1" stopTime="0.00" timeLoss="70.00" rerouteNo="0" devices="tripinfo_f_SN.10" vType="car" speedFactor="1.08" vaporized=""/>
    <tripinfo id="f_SE.2" depart="139.00" departLane="edge_S_in_0" departPos="5.00" departSpeed="0.00" departDelay="0.00" arrival="289.00" arrivalLane="edge_E_out_0" arrivalPos="492.80" arrivalSpeed="12.29" duration="150.00" routeLength="989.63" waitingTime="59.00" waitingCount="1" stopTime="0.00" timeLoss="71.29" rerouteNo="0" devices="tripinfo_f_SE.2" vType="car" speedFactor="0.92" vaporized=""/>
    <tripinfo id="f_SW.5" depart="174.00" departLane="edge_S_in_0" departPos="5.00" departSpeed="0.00" departDelay="0.00" arrival="294.00" arrivalLane="edge_W_out_0" arrivalPos="492.80" arrivalSpeed="13.34" duration="120.00" routeLength="994.79" waitingTime="31.00" waitingCount="1" stopTime="0.00" timeLoss="45.06" rerouteNo="0" devices="tripinfo_f_SW.5" vType="car" speedFactor="0.97" vaporized=""/>
    <tripinfo id="f_WS.2" depart="66.00" departLane="edge_W_in_0" departPos="5.00" departSpeed="0.00" departDelay="0.00" arrival="296.00" arrivalLane="edge_S_out_0" arrivalPos="492.80" arrivalSpeed="14.23" duration="230.00" routeLength="989.63" waitingTime="133.00" waitingCount="3" stopTime="0.00" timeLoss="163.38" rerouteNo="0" devices="tripinfo_f_WS.2" vType="car" speedFactor="1.08" vaporized=""/>
    <tripinfo id="f_SN.11" depart="160.00" departLane="edge_S_in_0" departPos="5.00" departSpeed="0.00" departDelay="0.00" arrival="296.00" arrivalLane="edge_N_out_0" arrivalPos="492.80" arrivalSpeed="11.52" duration="136.00" routeLength="995.00" waitingTime="39.00" waitingCount="1" stopTime="0.00" timeLoss="51.79" rerouteNo="0" devices="tripinfo_f_SN.11" vType="car" speedFactor="0.86" vaporized=""/>
    <tripinfo id="f_WE.2" depart="74.00" departLane="edge_W_in_0" departPos="5.00" departSpeed="0.00" departDelay="2.00" arrival="301.00" arrivalLane="edge_E_out_0" arrivalPos="492.80" arrivalSpeed="14.71" duration="227.00" routeLength="995.00" waitingTime="120.00" waitingCount="3" stopTime="0.00" timeLoss="159.41" rerouteNo="0" devices="tripinfo_f_WE.2" vType="car" speedFactor="1.06" vaporized=""/>
    <tripinfo id="f_WN.2" depart="71.00" departLane="edge_W_in_0" departPos="5.00" departSpeed="0.00" departDelay="0.00" arrival="306.00" arrivalLane="edge_N_out_0" arrivalPos="492.80" arrivalSpeed="11.64" duration="235.00" routeLength="994.79" waitingTime="122.00" waitingCount="3" stopTime="0.00" timeLoss="154.11" rerouteNo="0" devices="tripinfo_f_WN.2" vType="car" speedFactor="0.90" vaporized=""/>
    <tripinfo id="f_WN.3" depart="98.00" departLane="edge_W_in_0" departPos="5.00" departSpeed="0.00" departDelay="0.00" arrival="308.00" arrivalLane="edge_N_out_0" arrivalPos="492.80" arrivalSpeed="14.65" duration="210.00" routeLength="994.79" waitingTime="102.00" waitingCount="3" stopTime="0.00" timeLoss="142.63" rerouteNo="0" devices="tripinfo_f_WN.3" vType="car" speedFactor="1.13" vaporized=""/>
    <tripinfo id="f_WE.3" depart="77.00" departLane="edge_W_in_0" departPos="2.10" departSpeed="0.00" departDelay="1.00" arrival="309.00" arrivalLane="edge_E_out_0" arrivalPos="492.80" arrivalSpeed="12.66" duration="232.00" routeLength="997.90" waitingTime="119.00" waitingCount="3" stopTime="0.00" timeLoss="154.30" rerouteNo="0" devices="tripinfo_f_WE.3" vType="moto" speedFactor="0.94" vaporized=""/>
    <tripinfo id="f_WS.3" depart="148.00" departLane="edge_W_in_0" departPos="5.00" departSpeed="0.00" departDelay="2.00" arrival="315.00" arrivalLane="edge_S_out_0" arrivalPos="492.80" arrivalSpeed="13.42" duration="167.00" routeLength="989.63" waitingTime="50.00" waitingCount="3" stopTime="0.00" timeLoss="95.66" rerouteNo="0" devices="tripinfo_f_WS.3" vType="car" speedFactor="1.02" vaporized=""/>
    <tripinfo id="f_WN.4" depart="145.00" departLane="edge_W_in_0" departPos="5.00" departSpeed="0.00" departDelay="0.00" arrival="318.00" arrivalLane="edge_N_out_0" arrivalPos="492.80" arrivalSpeed="11.31" duration="173.00" routeLength="994.79" waitingTime="53.00" waitingCount="3" stopTime="0.00" timeLoss="90.93" rerouteNo="0" devices="tripinfo_f_WN.4" vType="car" speedFactor="0.89" vaporized=""/>
    <tripinfo id="f_WE.4" depart="154.00" departLane="edge_W_in_0" departPos="5.00" departSpeed="0.00" departDelay="1.00" arrival="322.00" arrivalLane="edge_E_out_0" arrivalPos="492.80" arrivalSpeed="11.40" duration="168.00" routeLength="995.00" waitingTime="43.00" waitingCount="2" stopTime="0.00" timeLoss="85.86" rerouteNo="0" devices="tripinfo_f_WE.4" vType="car" speedFactor="0.88" vaporized=""/>
    <tripinfo id="f_SE.3" depart="182.00" departLane="edge_S_in_0" departPos="5.00" departSpeed="0.00" departDelay="0.00" arrival="323.00" arrivalLane="edge_E_out_0" arrivalPos="492.80" arrivalSpeed="13.63" duration="141.00" routeLength="989.63" waitingTime="50.00" waitingCount="2" stopTime="0.00" timeLoss="70.43" rerouteNo="0" devices="tripinfo_f_SE.3" vType="car" speedFactor="1.02" vaporized=""/>
    <tripinfo id="f_SN.12" depart="188.00" departLane="edge_S_in_0" departPos="5.00" departSpeed="0.00" departDelay="0.00" arrival="323.00" arrivalLane="edge_N_out_0" arrivalPos="492.80" arrivalSpeed="14.48" duration="135.00" routeLength="995.00" waitingTime="48.00" waitingCount="2" stopTime="0.00" timeLoss="68.16" rerouteNo="0" devices="tripinfo_f_SN.12" vType="car" speedFactor="1.10" vaporized=""/>
    <tripinfo id="f_SN.13" depart="192.00" departLane="edge_S_in_0" departPos="5.00" departSpeed="0.00" departDelay="0.00" arrival="326.00" arrivalLane="edge_N_out_0" arrivalPos="492.80" arrivalSpeed="14.07" duration="134.00" routeLength="995.00" waitingTime="43.00" waitingCount="2" stopTime="0.00" timeLoss="65.58" rerouteNo="0" devices="tripinfo_f_SN.13" vType="car" speedFactor="1.06" vaporized=""/>
    <tripinfo id="f_SN.14" depart="195.00" departLane="edge_S_in_0" departPos="5.00" departSpeed="0.00" departDelay="0.00" arrival="327.00" arrivalLane="edge_N_out_0" arrivalPos="492.80" arrivalSpeed="14.10" duration="132.00" routeLength="995.00" waitingTime="42.00" waitingCount="2" stopTime="0.00" timeLoss="65.66" rerouteNo="0" devices="tripinfo_f_SN.14" vType="car" speedFactor="1.10" vaporized=""/>
    <tripinfo id="f_EW.7" depart="147.00" departLane="edge_E_in_0" departPos="5.00" departSpeed="0.00" departDelay="2.00" arrival="338.00" arrivalLane="edge_W_out_0" arrivalPos="492.80" arrivalSpeed="12.89" duration="191.00" routeLength="995.00" waitingTime="96.00" waitingCount="2" stopTime="0.00" timeLoss="117.52" rerouteNo="0" devices="tripinfo_f_EW.7" vType="car" speedFactor="0.98" vaporized=""/>
    <tripinfo id="f_EW.8" depart="172.00" departLane="edge_E_in_0" departPos="5.00" departSpeed="0.00" departDelay="0.00" arrival="342.00" arrivalLane="edge_W_out_0" arrivalPos="492.80" arrivalSpeed="12.35" duration="170.00" routeLength="995.00" waitingTime="73.00" waitingCount="2" stopTime="0.00" timeLoss="93.00" rerouteNo="0" devices="tripinfo_f_EW.8" vType="car" speedFactor="0.94" vaporized=""/>
    <tripinfo id="f_EW.9" depart="175.00" departLane="edge_E_in_0" departPos="5.00" departSpeed="0.00" departDelay="2.00" arrival="344.00" arrivalLane="edge_W_out_0" arrivalPos="492.80" arrivalSpeed="12.43" duration="169.00" routeLength="995.00" waitingTime="69.00" waitingCount="2" stopTime="0.00" timeLoss="92.42" rerouteNo="0" devices="tripinfo_f_EW.9" vType="car" speedFactor="0.94" vaporized=""/>
    <tripinfo id="f_EW.10" depart="180.00" departLane="edge_E_in_0" departPos="5.00" departSpeed="0.00" departDelay="0.00" arrival="346.00" arrivalLane="edge_W_out_0" arrivalPos="492.80" arrivalSpeed="13.43" duration="166.00" routeLength="995.00" waitingTime="68.00" waitingCount="2" stopTime="0.00" timeLoss="94.54" rerouteNo="0" devices="tripinfo_f_EW.10" vType="car" speedFactor="1.01" vaporized=""/>
    <tripinfo id="f_WN.5" depart="157.00" departLane="edge_W_in_0" departPos="5.00" departSpeed="0.00" departDelay="4.00" arrival="348.00" arrivalLane="edge_N_out_0" arrivalPos="492.80" arrivalSpeed="13.43" duration="191.00" routeLength="994.79" waitingTime="70.00" waitingCount="3" stopTime="0.00" timeLoss="121.83" rerouteNo="0" devices="tripinfo_f_WN.5" vType="car" speedFactor="1.05" vaporized=""/>
    <tripinfo id="f_WE.5" depart="179.00" departLane="edge_W_in_0" departPos="2.10" departSpeed="0.00" departDelay="0.00" arrival="352.00" arrivalLane="edge_E_out_0" arrivalPos="492.80" arrivalSpeed="13.19" duration="173.00" routeLength="997.90" waitingTime="65.00" waitingCount="3" stopTime="0.00" timeLoss="104.04" rerouteNo="0" devices="tripinfo_f_WE.5" vType="moto" speedFactor="1.04" vaporized=""/>
    <tripinfo id="f_WN.6" depart="161.00" departLane="edge_W_in_0" departPos="5.00" departSpeed="0.00" departDelay="0.00" arrival="354.00" arrivalLane="edge_N_out_0" arrivalPos="492.80" arrivalSpeed="13.05" duration="193.00" routeLength="994.79" waitingTime="70.00" waitingCount="3" stopTime="0.00" timeLoss="118.20" rerouteNo="0" devices="tripinfo_f_WN.6" vType="car" speedFactor="0.98" vaporized=""/>
    <tripinfo id="f_WE.6" depart="195.00" departLane="edge_W_in_0" departPos="5.00" departSpeed="0.00" departDelay="0.00" arrival="359.00" arrivalLane="edge_E_out_0" arrivalPos="492.80" arrivalSpeed="12.23" duration="164.00" routeLength="995.00" waitingTime="46.00" waitingCount="3" stopTime="0.00" timeLoss="86.00" rerouteNo="0" devices="tripinfo_f_WE.6" vType="car" speedFactor="0.93" vaporized=""/>
    <tripinfo id="f_SN.15" depart="219.00" departLane="edge_S_in_0" departPos="2.10" departSpeed="0.00" departDelay="0.00" arrival="359.00" arrivalLane="edge_N_out_0" arrivalPos="492.80" arrivalSpeed="14.85" duration="140.00" routeLength="997.90" waitingTime="46.00" waitingCount="3" stopTime="0.00" timeLoss="78.60" rerouteNo="0" devices="tripinfo_f_SN.15" vType="moto" speedFactor="1.18" vaporized=""/>
    <tripinfo id="f_SE.4" depart="203.00" departLane="edge_S_in_0" departPos="5.00" departSpeed="0.00" departDelay="0.00" arrival="361.00" arrivalLane="edge_E_out_0" arrivalPos="492.80" arrivalSpeed="13.98" duration="158.00" routeLength="989.63" waitingTime="60.00" waitingCount="3" stopTime="0.00" timeLoss="88.17" rerouteNo="0" devices="tripinfo_f_SE.4" vType="car" speedFactor="1.03" vaporized=""/>